 Entering Gaussian System, Link 0=g09
 Initial command:
 /home/rotations/zhangf/install/g09/l1.exe "/home/rotations/zhangf/install/g09/scratch/Gau-6310.inp" -scrdir="/home/rotations/zhangf/install/g09/scratch/"
 Default is to use a total of   4 processors:
                                4 via shared-memory
                                1 via Linda
 Entering Link 1 = /home/rotations/zhangf/install/g09/l1.exe PID=      6311.
  
 Copyright (c) 1988,1990,1992,1993,1995,1998,2003,2009,2013,
            Gaussian, Inc.  All Rights Reserved.
  
 This is part of the Gaussian(R) 09 program.  It is based on
 the Gaussian(R) 03 system (copyright 2003, Gaussian, Inc.),
 the Gaussian(R) 98 system (copyright 1998, Gaussian, Inc.),
 the Gaussian(R) 94 system (copyright 1995, Gaussian, Inc.),
 the Gaussian 92(TM) system (copyright 1992, Gaussian, Inc.),
 the Gaussian 90(TM) system (copyright 1990, Gaussian, Inc.),
 the Gaussian 88(TM) system (copyright 1988, Gaussian, Inc.),
 the Gaussian 86(TM) system (copyright 1986, Carnegie Mellon
 University), and the Gaussian 82(TM) system (copyright 1983,
 Carnegie Mellon University). Gaussian is a federally registered
 trademark of Gaussian, Inc.
  
 This software contains proprietary and confidential information,
 including trade secrets, belonging to Gaussian, Inc.
  
 This software is provided under written license and may be
 used, copied, transmitted, or stored only in accord with that
 written license.
  
 The following legend is applicable only to US Government
 contracts under FAR:
  
                    RESTRICTED RIGHTS LEGEND
  
 Use, reproduction and disclosure by the US Government is
 subject to restrictions as set forth in subparagraphs (a)
 and (c) of the Commercial Computer Software - Restricted
 Rights clause in FAR 52.227-19.
  
 Gaussian, Inc.
 340 Quinnipiac St., Bldg. 40, Wallingford CT 06492
  
  
 ---------------------------------------------------------------
 Warning -- This program may not be used in any manner that
 competes with the business of Gaussian, Inc. or will provide
 assistance to any competitor of Gaussian, Inc.  The licensee
 of this program is prohibited from giving any competitor of
 Gaussian, Inc. access to this program.  By using this program,
 the user acknowledges that Gaussian, Inc. is engaged in the
 business of creating and licensing software in the field of
 computational chemistry and represents and warrants to the
 licensee that it is not a competitor of Gaussian, Inc. and that
 it will not use this program in any manner prohibited above.
 ---------------------------------------------------------------
  

 Cite this work as:
 Gaussian 09, Revision D.01,
 M. J. Frisch, G. W. Trucks, H. B. Schlegel, G. E. Scuseria, 
 M. A. Robb, J. R. Cheeseman, G. Scalmani, V. Barone, B. Mennucci, 
 G. A. Petersson, H. Nakatsuji, M. Caricato, X. Li, H. P. Hratchian, 
 A. F. Izmaylov, J. Bloino, G. Zheng, J. L. Sonnenberg, M. Hada, 
 M. Ehara, K. Toyota, R. Fukuda, J. Hasegawa, M. Ishida, T. Nakajima, 
 Y. Honda, O. Kitao, H. Nakai, T. Vreven, J. A. Montgomery, Jr., 
 J. E. Peralta, F. Ogliaro, M. Bearpark, J. J. Heyd, E. Brothers, 
 K. N. Kudin, V. N. Staroverov, T. Keith, R. Kobayashi, J. Normand, 
 K. Raghavachari, A. Rendell, J. C. Burant, S. S. Iyengar, J. Tomasi, 
 M. Cossi, N. Rega, J. M. Millam, M. Klene, J. E. Knox, J. B. Cross, 
 V. Bakken, C. Adamo, J. Jaramillo, R. Gomperts, R. E. Stratmann, 
 O. Yazyev, A. J. Austin, R. Cammi, C. Pomelli, J. W. Ochterski, 
 R. L. Martin, K. Morokuma, V. G. Zakrzewski, G. A. Voth, 
 P. Salvador, J. J. Dannenberg, S. Dapprich, A. D. Daniels, 
 O. Farkas, J. B. Foresman, J. V. Ortiz, J. Cioslowski, 
 and D. J. Fox, Gaussian, Inc., Wallingford CT, 2013.
 
 ******************************************
 Gaussian 09:  ES64L-G09RevD.01 24-Apr-2013
                 3-Mar-2021 
 ******************************************
 %Chk=/home/rotations/zhangf/gen_ncaa_params/gaussian_output/3-pyridyl-L-alanine.
 chk
 -----------------------------------------
 #B3LYP/6-31G(d) em=GD3BJ Opt=ModRedundant
 -----------------------------------------
 1/14=-1,18=120,19=15,26=3,38=1/1,3;
 2/9=110,12=2,17=6,18=5,40=1/2;
 3/5=1,6=6,7=1,11=2,16=1,25=1,30=1,71=1,74=-5,124=41/1,2,3;
 4//1;
 5/5=2,38=5/2;
 6/7=2,8=2,9=2,10=2,28=1/1;
 7//1,2,3,16;
 1/14=-1,18=20,19=15,26=3/3(2);
 2/9=110/2;
 99//99;
 2/9=110/2;
 3/5=1,6=6,7=1,11=2,16=1,25=1,30=1,71=1,74=-5,124=41/1,2,3;
 4/5=5,16=3,69=1/1;
 5/5=2,38=5/2;
 7//1,2,3,16;
 1/14=-1,18=20,19=15,26=3/3(-5);
 2/9=110/2;
 6/7=2,8=2,9=2,10=2,19=2,28=1/1;
 99/9=1/99;
 -------------
 scan rotamers
 -------------
 Symbolic Z-matrix:
 Charge =  0 Multiplicity = 1
 C                     1.7069   -0.0482    1.2531 
 N                     1.533    -0.1548   -1.1541 
 C                     0.7817    0.065     0.0664 
 C                    -0.3197   -0.9808    0.1807 
 O                     1.2759    0.1024    2.3715 
 N                     3.0347   -0.3215    1.0622 
 C                     3.9237   -0.4302    2.2025 
 C                     0.9      -0.1009   -2.3667 
 O                     1.526    -0.284    -3.3835 
 C                    -0.5797    0.1873   -2.4332 
 C                    -1.6522   -0.3002    0.2261 
 C                    -2.8228   -1.0346    0.3296 
 N                    -4.0548   -0.4823    0.3753 
 C                    -4.1164    0.8658    0.3145 
 C                    -3.0032    1.6845    0.2103 
 C                    -1.7483    1.0862    0.1655 
 H                     2.5254   -0.3481   -1.1095 
 H                     0.3275    1.0809    0.0444 
 H                    -0.2798   -1.6587   -0.7011 
 H                    -0.1737   -1.5728    1.1119 
 H                     3.3957   -0.4476    0.1253 
 H                     3.3479   -0.2616    3.14 
 H                     4.3766   -1.4467    2.2236 
 H                     4.7287    0.3339    2.1193 
 H                    -0.9778    0.3263   -1.4032 
 H                    -0.7503    1.1147   -3.0245 
 H                    -1.1022   -0.6659   -2.9208 
 H                    -2.7443   -2.1308    0.3773 
 H                    -5.1077    1.3413    0.3498 
 H                    -3.1092    2.7784    0.1643 
 H                    -0.8413    1.703     0.083 
 
 The following ModRedundant input section has been read:
 

 GradGradGradGradGradGradGradGradGradGradGradGradGradGradGradGradGradGrad
 Berny optimization.
 Initialization pass.
                           ----------------------------
                           !    Initial Parameters    !
                           ! (Angstroms and Degrees)  !
 --------------------------                            --------------------------
 ! Name  Definition              Value          Derivative Info.                !
 --------------------------------------------------------------------------------
 ! R1    R(1,3)                  1.509          estimate D2E/DX2                !
 ! R2    R(1,5)                  1.208          estimate D2E/DX2                !
 ! R3    R(1,6)                  1.369          estimate D2E/DX2                !
 ! R4    R(2,3)                  1.45           estimate D2E/DX2                !
 ! R5    R(2,8)                  1.3689         estimate D2E/DX2                !
 ! R6    R(2,17)                 1.012          estimate D2E/DX2                !
 ! R7    R(3,4)                  1.5231         estimate D2E/DX2                !
 ! R8    R(3,18)                 1.113          estimate D2E/DX2                !
 ! R9    R(4,11)                 1.4969         estimate D2E/DX2                !
 ! R10   R(4,19)                 1.113          estimate D2E/DX2                !
 ! R11   R(4,20)                 1.1131         estimate D2E/DX2                !
 ! R12   R(6,7)                  1.45           estimate D2E/DX2                !
 ! R13   R(6,21)                 1.0119         estimate D2E/DX2                !
 ! R14   R(7,22)                 1.113          estimate D2E/DX2                !
 ! R15   R(7,23)                 1.113          estimate D2E/DX2                !
 ! R16   R(7,24)                 1.113          estimate D2E/DX2                !
 ! R17   R(8,9)                  1.208          estimate D2E/DX2                !
 ! R18   R(8,10)                 1.509          estimate D2E/DX2                !
 ! R19   R(10,25)                1.113          estimate D2E/DX2                !
 ! R20   R(10,26)                1.113          estimate D2E/DX2                !
 ! R21   R(10,27)                1.113          estimate D2E/DX2                !
 ! R22   R(11,12)                1.3858         estimate D2E/DX2                !
 ! R23   R(11,16)                1.391          estimate D2E/DX2                !
 ! R24   R(12,13)                1.3509         estimate D2E/DX2                !
 ! R25   R(12,28)                1.1            estimate D2E/DX2                !
 ! R26   R(13,14)                1.3509         estimate D2E/DX2                !
 ! R27   R(14,15)                1.3858         estimate D2E/DX2                !
 ! R28   R(14,29)                1.1            estimate D2E/DX2                !
 ! R29   R(15,16)                1.391          estimate D2E/DX2                !
 ! R30   R(15,30)                1.1            estimate D2E/DX2                !
 ! R31   R(16,31)                1.1            estimate D2E/DX2                !
 ! A1    A(3,1,5)              119.9987         estimate D2E/DX2                !
 ! A2    A(3,1,6)              119.9988         estimate D2E/DX2                !
 ! A3    A(5,1,6)              120.0025         estimate D2E/DX2                !
 ! A4    A(3,2,8)              120.0035         estimate D2E/DX2                !
 ! A5    A(3,2,17)             119.9973         estimate D2E/DX2                !
 ! A6    A(8,2,17)             119.9992         estimate D2E/DX2                !
 ! A7    A(1,3,2)              109.445          estimate D2E/DX2                !
 ! A8    A(1,3,4)              109.4414         estimate D2E/DX2                !
 ! A9    A(1,3,18)             109.5248         estimate D2E/DX2                !
 ! A10   A(2,3,4)              109.498          estimate D2E/DX2                !
 ! A11   A(2,3,18)             109.4612         estimate D2E/DX2                !
 ! A12   A(4,3,18)             109.4569         estimate D2E/DX2                !
 ! A13   A(3,4,11)             109.4988         estimate D2E/DX2                !
 ! A14   A(3,4,19)             109.4409         estimate D2E/DX2                !
 ! A15   A(3,4,20)             109.4584         estimate D2E/DX2                !
 ! A16   A(11,4,19)            109.443          estimate D2E/DX2                !
 ! A17   A(11,4,20)            109.4634         estimate D2E/DX2                !
 ! A18   A(19,4,20)            109.5229         estimate D2E/DX2                !
 ! A19   A(1,6,7)              119.9975         estimate D2E/DX2                !
 ! A20   A(1,6,21)             119.9991         estimate D2E/DX2                !
 ! A21   A(7,6,21)             120.0034         estimate D2E/DX2                !
 ! A22   A(6,7,22)             109.5034         estimate D2E/DX2                !
 ! A23   A(6,7,23)             109.4421         estimate D2E/DX2                !
 ! A24   A(6,7,24)             109.4625         estimate D2E/DX2                !
 ! A25   A(22,7,23)            109.4432         estimate D2E/DX2                !
 ! A26   A(22,7,24)            109.4588         estimate D2E/DX2                !
 ! A27   A(23,7,24)            109.5173         estimate D2E/DX2                !
 ! A28   A(2,8,9)              120.0            estimate D2E/DX2                !
 ! A29   A(2,8,10)             119.9993         estimate D2E/DX2                !
 ! A30   A(9,8,10)             120.0007         estimate D2E/DX2                !
 ! A31   A(8,10,25)            109.5009         estimate D2E/DX2                !
 ! A32   A(8,10,26)            109.4422         estimate D2E/DX2                !
 ! A33   A(8,10,27)            109.4662         estimate D2E/DX2                !
 ! A34   A(25,10,26)           109.4367         estimate D2E/DX2                !
 ! A35   A(25,10,27)           109.467          estimate D2E/DX2                !
 ! A36   A(26,10,27)           109.5145         estimate D2E/DX2                !
 ! A37   A(4,11,12)            120.8804         estimate D2E/DX2                !
 ! A38   A(4,11,16)            120.8849         estimate D2E/DX2                !
 ! A39   A(12,11,16)           118.2346         estimate D2E/DX2                !
 ! A40   A(11,12,13)           123.7959         estimate D2E/DX2                !
 ! A41   A(11,12,28)           118.1035         estimate D2E/DX2                !
 ! A42   A(13,12,28)           118.1006         estimate D2E/DX2                !
 ! A43   A(12,13,14)           116.6193         estimate D2E/DX2                !
 ! A44   A(13,14,15)           123.8026         estimate D2E/DX2                !
 ! A45   A(13,14,29)           118.1012         estimate D2E/DX2                !
 ! A46   A(15,14,29)           118.0963         estimate D2E/DX2                !
 ! A47   A(14,15,16)           118.2317         estimate D2E/DX2                !
 ! A48   A(14,15,30)           120.8811         estimate D2E/DX2                !
 ! A49   A(16,15,30)           120.8872         estimate D2E/DX2                !
 ! A50   A(11,16,15)           119.3159         estimate D2E/DX2                !
 ! A51   A(11,16,31)           120.3433         estimate D2E/DX2                !
 ! A52   A(15,16,31)           120.3408         estimate D2E/DX2                !
 ! D1    D(5,1,3,2)            179.9989         estimate D2E/DX2                !
 ! D2    D(5,1,3,4)            -60.0026         estimate D2E/DX2                !
 ! D3    D(5,1,3,18)            59.9944         estimate D2E/DX2                !
 ! D4    D(6,1,3,2)              0.0023         estimate D2E/DX2                !
 ! D5    D(6,1,3,4)            120.0007         estimate D2E/DX2                !
 ! D6    D(6,1,3,18)          -120.0023         estimate D2E/DX2                !
 ! D7    D(3,1,6,7)            179.9969         estimate D2E/DX2                !
 ! D8    D(3,1,6,21)            -0.0002         estimate D2E/DX2                !
 ! D9    D(5,1,6,7)              0.0003         estimate D2E/DX2                !
 ! D10   D(5,1,6,21)          -179.9969         estimate D2E/DX2                !
 ! D11   D(8,2,3,1)            179.9958         estimate D2E/DX2                !
 ! D12   D(8,2,3,4)             60.032          estimate D2E/DX2                !
 ! D13   D(8,2,3,18)           -59.9608         estimate D2E/DX2                !
 ! D14   D(17,2,3,1)            -0.0023         estimate D2E/DX2                !
 ! D15   D(17,2,3,4)          -119.9661         estimate D2E/DX2                !
 ! D16   D(17,2,3,18)          120.0412         estimate D2E/DX2                !
 ! D17   D(3,2,8,9)            179.9982         estimate D2E/DX2                !
 ! D18   D(3,2,8,10)             0.0012         estimate D2E/DX2                !
 ! D19   D(17,2,8,9)            -0.0037         estimate D2E/DX2                !
 ! D20   D(17,2,8,10)          179.9993         estimate D2E/DX2                !
 ! D21   D(1,3,4,11)           120.0356         estimate D2E/DX2                !
 ! D22   D(1,3,4,19)          -120.0007         estimate D2E/DX2                !
 ! D23   D(1,3,4,20)             0.0361         estimate D2E/DX2                !
 ! D24   D(2,3,4,11)          -119.9984         estimate D2E/DX2                !
 ! D25   D(2,3,4,19)            -0.0347         estimate D2E/DX2                !
 ! D26   D(2,3,4,20)           120.0021         estimate D2E/DX2                !
 ! D27   D(18,3,4,11)           -0.003          estimate D2E/DX2                !
 ! D28   D(18,3,4,19)          119.9607         estimate D2E/DX2                !
 ! D29   D(18,3,4,20)         -120.0025         estimate D2E/DX2                !
 ! D30   D(3,4,11,12)         -179.9991         estimate D2E/DX2                !
 ! D31   D(3,4,11,16)            0.0018         estimate D2E/DX2                !
 ! D32   D(19,4,11,12)          60.0385         estimate D2E/DX2                !
 ! D33   D(19,4,11,16)        -119.9606         estimate D2E/DX2                !
 ! D34   D(20,4,11,12)         -60.0027         estimate D2E/DX2                !
 ! D35   D(20,4,11,16)         119.9982         estimate D2E/DX2                !
 ! D36   D(1,6,7,22)            -0.0009         estimate D2E/DX2                !
 ! D37   D(1,6,7,23)           119.9666         estimate D2E/DX2                !
 ! D38   D(1,6,7,24)          -120.0            estimate D2E/DX2                !
 ! D39   D(21,6,7,22)          179.9962         estimate D2E/DX2                !
 ! D40   D(21,6,7,23)          -60.0362         estimate D2E/DX2                !
 ! D41   D(21,6,7,24)           59.9971         estimate D2E/DX2                !
 ! D42   D(2,8,10,25)            0.0031         estimate D2E/DX2                !
 ! D43   D(2,8,10,26)          119.9611         estimate D2E/DX2                !
 ! D44   D(2,8,10,27)         -120.0068         estimate D2E/DX2                !
 ! D45   D(9,8,10,25)         -179.9939         estimate D2E/DX2                !
 ! D46   D(9,8,10,26)          -60.0358         estimate D2E/DX2                !
 ! D47   D(9,8,10,27)           59.9963         estimate D2E/DX2                !
 ! D48   D(4,11,12,13)         179.9975         estimate D2E/DX2                !
 ! D49   D(4,11,12,28)          -0.0031         estimate D2E/DX2                !
 ! D50   D(16,11,12,13)         -0.0034         estimate D2E/DX2                !
 ! D51   D(16,11,12,28)        179.996          estimate D2E/DX2                !
 ! D52   D(4,11,16,15)        -179.9997         estimate D2E/DX2                !
 ! D53   D(4,11,16,31)           0.0006         estimate D2E/DX2                !
 ! D54   D(12,11,16,15)          0.0012         estimate D2E/DX2                !
 ! D55   D(12,11,16,31)       -179.9985         estimate D2E/DX2                !
 ! D56   D(11,12,13,14)          0.0039         estimate D2E/DX2                !
 ! D57   D(28,12,13,14)       -179.9955         estimate D2E/DX2                !
 ! D58   D(12,13,14,15)         -0.0023         estimate D2E/DX2                !
 ! D59   D(12,13,14,29)       -179.9991         estimate D2E/DX2                !
 ! D60   D(13,14,15,16)          0.0004         estimate D2E/DX2                !
 ! D61   D(13,14,15,30)       -179.9964         estimate D2E/DX2                !
 ! D62   D(29,14,15,16)        179.9972         estimate D2E/DX2                !
 ! D63   D(29,14,15,30)          0.0004         estimate D2E/DX2                !
 ! D64   D(14,15,16,11)          0.0002         estimate D2E/DX2                !
 ! D65   D(14,15,16,31)        179.9999         estimate D2E/DX2                !
 ! D66   D(30,15,16,11)        179.997          estimate D2E/DX2                !
 ! D67   D(30,15,16,31)         -0.0034         estimate D2E/DX2                !
 --------------------------------------------------------------------------------
 Trust Radius=3.00D-01 FncErr=1.00D-07 GrdErr=1.00D-06
 Number of steps in this run=    160 maximum allowed number of steps=    186.
 GradGradGradGradGradGradGradGradGradGradGradGradGradGradGradGradGradGrad

                          Input orientation:                          
 ---------------------------------------------------------------------
 Center     Atomic      Atomic             Coordinates (Angstroms)
 Number     Number       Type             X           Y           Z
 ---------------------------------------------------------------------
      1          6           0        1.706900   -0.048200    1.253100
      2          7           0        1.533000   -0.154800   -1.154100
      3          6           0        0.781700    0.065000    0.066400
      4          6           0       -0.319700   -0.980800    0.180700
      5          8           0        1.275900    0.102400    2.371500
      6          7           0        3.034700   -0.321500    1.062200
      7          6           0        3.923700   -0.430200    2.202500
      8          6           0        0.900000   -0.100900   -2.366700
      9          8           0        1.526000   -0.284000   -3.383500
     10          6           0       -0.579700    0.187300   -2.433200
     11          6           0       -1.652200   -0.300200    0.226100
     12          6           0       -2.822800   -1.034600    0.329600
     13          7           0       -4.054800   -0.482300    0.375300
     14          6           0       -4.116400    0.865800    0.314500
     15          6           0       -3.003200    1.684500    0.210300
     16          6           0       -1.748300    1.086200    0.165500
     17          1           0        2.525400   -0.348100   -1.109500
     18          1           0        0.327500    1.080900    0.044400
     19          1           0       -0.279800   -1.658700   -0.701100
     20          1           0       -0.173700   -1.572800    1.111900
     21          1           0        3.395700   -0.447600    0.125300
     22          1           0        3.347900   -0.261600    3.140000
     23          1           0        4.376600   -1.446700    2.223600
     24          1           0        4.728700    0.333900    2.119300
     25          1           0       -0.977800    0.326300   -1.403200
     26          1           0       -0.750300    1.114700   -3.024500
     27          1           0       -1.102200   -0.665900   -2.920800
     28          1           0       -2.744300   -2.130800    0.377300
     29          1           0       -5.107700    1.341300    0.349800
     30          1           0       -3.109200    2.778400    0.164300
     31          1           0       -0.841300    1.703000    0.083000
 ---------------------------------------------------------------------
                    Distance matrix (angstroms):
                    1          2          3          4          5
     1  C    0.000000
     2  N    2.415826   0.000000
     3  C    1.508995   1.449960   0.000000
     4  C    2.475256   2.428264   1.523103   0.000000
     5  O    1.207998   3.544306   2.357778   2.918710   0.000000
     6  N    1.369010   2.682327   2.493393   3.530399   2.233234
     7  C    2.441616   4.130140   3.831489   4.732576   2.706117
     8  C    3.709018   1.368939   2.441617   2.958232   4.757433
     9  O    4.646115   2.233152   3.546490   4.073777   5.773377
    10  C    4.344284   2.493317   2.848924   2.874810   5.151272
    11  C    3.521617   3.474420   2.466322   1.496941   3.652204
    12  C    4.726946   4.684913   3.777673   2.508102   4.718206
    13  N    5.844327   5.802571   4.877160   3.773240   5.722154
    14  C    5.968852   5.925718   4.969328   4.224070   5.821592
    15  C    5.125888   5.081508   4.119339   3.782310   5.048220
    16  C    3.795806   3.748114   2.730123   2.512691   3.870411
    17  H    2.518285   1.012034   2.143334   3.187400   3.725797
    18  H    2.153733   2.101568   1.113029   2.165191   2.696724
    19  H    3.218631   2.398576   2.164943   1.112974   3.868145
    20  H    2.425077   3.171483   2.165236   1.113065   2.548377
    21  H    2.069661   2.278650   2.664437   3.753874   3.137111
    22  H    2.509743   4.663107   4.017346   4.767179   2.239704
    23  H    3.166223   4.600426   4.456687   5.142542   3.469283
    24  H    3.166635   4.600704   4.457075   5.565335   3.469730
    25  H    3.795233   2.568584   2.307345   2.156466   4.402006
    26  H    5.068336   3.213018   3.605906   3.853549   5.852098
    27  H    5.068929   3.213523   3.606474   3.214152   5.852699
    28  H    4.991736   4.954297   4.165438   2.690694   5.012587
    29  H    7.013233   6.971293   6.032768   5.324067   6.809735
    30  H    5.689462   5.647288   4.744600   4.681150   5.591226
    31  H    3.305928   3.258702   2.305959   2.735762   3.504524
                    6          7          8          9         10
     6  N    0.000000
     7  C    1.449973   0.000000
     8  C    4.045116   5.488970   0.000000
     9  O    4.694873   6.080603   1.208008   0.000000
    10  C    5.053769   6.492429   1.508971   2.357788   0.000000
    11  C    4.760940   5.917239   3.643632   4.809411   2.908572
    12  C    5.946051   7.027682   4.690530   5.767371   3.762659
    13  N    7.124514   8.185221   5.675744   6.731510   4.518004
    14  C    7.287453   8.359867   5.769542   6.843531   4.529731
    15  C    6.419190   7.511509   5.006351   6.107704   3.886265
    16  C    5.065844   6.214533   3.851589   5.019352   2.987790
    17  H    2.230779   3.596015   2.069682   2.484751   3.417672
    18  H    3.214277   4.457967   2.745507   3.879414   2.785684
    19  H    3.985378   5.254476   2.567663   3.513685   2.549083
    20  H    3.444133   4.391313   3.926828   4.975802   3.978759
    21  H    1.011931   2.143326   3.543837   3.979224   4.769992
    22  H    2.102126   1.113049   6.028415   6.773173   6.832870
    23  H    2.101338   1.113030   5.913441   6.396668   6.994330
    24  H    2.101582   1.113012   5.913729   6.396866   6.994702
    25  H    4.753735   6.131726   2.153361   3.250087   1.112971
    26  H    5.752392   7.180148   2.152644   2.695697   1.113019
    27  H    5.752985   7.180768   2.152918   2.695807   1.112974
    28  H    6.094218   7.119383   4.993090   5.982453   4.237687
    29  H    8.340929   9.388125   6.749205   7.783643   5.438712
    30  H    6.939965   7.994439   5.547073   6.591681   4.456364
    31  H    4.481162   5.634541   3.505312   4.644233   2.949075
                   11         12         13         14         15
    11  C    0.000000
    12  C    1.385771   0.000000
    13  N    2.414106   1.350906   0.000000
    14  C    2.727573   2.298945   1.350876   0.000000
    15  C    2.400934   2.727688   2.414148   1.385764   0.000000
    16  C    1.391047   2.383122   2.797168   2.382997   1.390951
    17  H    4.386167   5.580818   6.746975   6.900350   6.036452
    18  H    2.420674   3.805400   4.664509   4.457294   3.389014
    19  H    2.142126   2.814017   4.097948   4.703620   4.407328
    20  H    2.142455   2.814140   4.098135   4.703988   4.407829
    21  H    5.051057   6.249484   7.454774   7.628398   6.745294
    22  H    5.787340   6.824472   7.905203   8.060413   7.259953
    23  H    6.453751   7.455764   8.685320   9.006851   8.265545
    24  H    6.685968   7.880417   8.992085   9.043009   8.077789
    25  H    1.871346   2.873790   3.644835   3.618337   2.924096
    26  H    3.658110   4.490516   5.002876   4.747789   3.982984
    27  H    3.215465   3.696147   4.428976   4.679602   4.352237
    28  H    2.136970   1.100042   2.105936   3.296394   3.827719
    29  H    3.827572   3.296373   2.105888   1.100010   2.136859
    30  H    3.406530   3.827312   3.401594   2.166807   1.099986
    31  H    2.165836   3.388452   3.897122   3.388329   2.165724
                   16         17         18         19         20
    16  C    0.000000
    17  H    4.684800   0.000000
    18  H    2.079336   2.864313   0.000000
    19  H    3.231403   3.123077   2.903445   0.000000
    20  H    3.231922   3.704004   2.903942   1.818132   0.000000
    21  H    5.367951   1.513953   3.428806   3.957145   3.870410
    22  H    6.052724   4.329231   4.528561   5.464993   4.270141
    23  H    6.940155   3.967798   5.247179   5.502806   4.685831
    24  H    6.806968   3.967972   4.922782   6.083600   5.355734
    25  H    1.905764   3.579593   2.090161   2.218191   3.252520
    26  H    3.342591   4.066598   3.252836   3.648466   4.966380
    27  H    3.607291   4.067098   3.726629   2.566917   4.236419
    28  H    3.374309   5.758327   4.456657   2.731224   2.731114
    29  H    3.374109   7.952851   5.449998   5.780399   5.780755
    30  H    2.171541   6.568583   3.834943   5.333130   5.333671
    31  H    1.099953   4.118706   1.324610   3.497302   3.497884
                   21         22         23         24         25
    21  H    0.000000
    22  H    3.020811   0.000000
    23  H    2.522544   1.817271   0.000000
    24  H    2.522631   1.817432   1.818073   0.000000
    25  H    4.697099   6.300633   6.705729   6.706132   0.000000
    26  H    5.436114   7.529310   7.770999   7.555645   1.817125
    27  H    5.436680   7.529950   7.555908   7.771847   1.817428
    28  H    6.371520   6.945597   7.388101   8.059469   3.511131
    29  H    8.692432   9.047192  10.061611  10.044937   4.599925
    30  H    7.261014   7.732434   8.839083   8.439803   3.607314
    31  H    4.751741   5.545656   6.459819   6.086530   2.030450
                   26         27         28         29         30
    26  H    0.000000
    27  H    1.818000   0.000000
    28  H    5.107010   3.964831   0.000000
    29  H    5.515812   5.547045   4.200225   0.000000
    30  H    4.301250   5.040743   4.927349   2.468536   0.000000
    31  H    3.164006   3.834393   4.290227   4.290009   2.511268
                   31
    31  H    0.000000
 Stoichiometry    C11H15N3O2
 Framework group  C1[X(C11H15N3O2)]
 Deg. of freedom    87
 Full point group                 C1      NOp   1
 Largest Abelian subgroup         C1      NOp   1
 Largest concise Abelian subgroup C1      NOp   1
                         Standard orientation:                         
 ---------------------------------------------------------------------
 Center     Atomic      Atomic             Coordinates (Angstroms)
 Number     Number       Type             X           Y           Z
 ---------------------------------------------------------------------
      1          6           0       -1.951079   -1.053868   -0.153970
      2          7           0       -1.484586    1.314013   -0.045627
      3          6           0       -0.875716    0.004523   -0.175615
      4          6           0        0.086037   -0.226178    0.982683
      5          8           0       -1.652408   -2.220409   -0.250086
      6          7           0       -3.265132   -0.692009   -0.025476
      7          6           0       -4.298416   -1.709022   -0.004749
      8          6           0       -0.700358    2.436041   -0.039724
      9          8           0       -1.207697    3.526989    0.068544
     10          6           0        0.797820    2.310081   -0.168530
     11          6           0        1.466075   -0.452560    0.448753
     12          6           0        2.530207   -0.687557    1.304767
     13          7           0        3.797590   -0.899001    0.887658
     14          6           0        4.007878   -0.873741   -0.446510
     15          6           0        3.009315   -0.646975   -1.380208
     16          6           0        1.714393   -0.432613   -0.919805
     17          1           0       -2.489380    1.398492    0.040771
     18          1           0       -0.318090   -0.051346   -1.137262
     19          1           0        0.087543    0.667184    1.646470
     20          1           0       -0.238676   -1.119444    1.561949
     21          1           0       -3.515273    0.285211    0.054988
     22          1           0       -3.832028   -2.714710   -0.104501
     23          1           0       -4.854708   -1.652411    0.957629
     24          1           0       -5.001421   -1.540738   -0.851071
     25          1           0        1.074066    1.235592   -0.257225
     26          1           0        1.138840    2.856331   -1.076344
     27          1           0        1.285432    2.745278    0.732330
     28          1           0        2.331413   -0.702800    2.386590
     29          1           0        5.031107   -1.043044   -0.813063
     30          1           0        3.234773   -0.636831   -2.456792
     31          1           0        0.895205   -0.249213   -1.630574
 ---------------------------------------------------------------------
 Rotational constants (GHZ):      0.7519918      0.3568314      0.2699289
 Standard basis: 6-31G(d) (6D, 7F)
 There are   270 symmetry adapted cartesian basis functions of A   symmetry.
 There are   270 symmetry adapted basis functions of A   symmetry.
   270 basis functions,   508 primitive gaussians,   270 cartesian basis functions
    59 alpha electrons       59 beta electrons
       nuclear repulsion energy      1112.7940667592 Hartrees.
 NAtoms=   31 NActive=   31 NUniq=   31 SFac= 1.00D+00 NAtFMM=   60 NAOKFM=F Big=F
 Integral buffers will be    131072 words long.
 Raffenetti 2 integral format.
 Two-electron integral symmetry is turned on.
 Nuclear repulsion after empirical dispersion term =     1112.7300524463 Hartrees.
 One-electron integrals computed using PRISM.
 NBasis=   270 RedAO= T EigKep=  7.04D-04  NBF=   270
 NBsUse=   270 1.00D-06 EigRej= -1.00D+00 NBFU=   270
 ExpMin= 1.61D-01 ExpMax= 5.48D+03 ExpMxC= 8.25D+02 IAcc=1 IRadAn=         1 AccDes= 0.00D+00
 Harris functional with IExCor=  402 and IRadAn=       1 diagonalized for initial guess.
 HarFok:  IExCor=  402 AccDes= 0.00D+00 IRadAn=         1 IDoV= 1 UseB2=F ITyADJ=14
 ICtDFT=  3500011 ScaDFX=  1.000000  1.000000  1.000000  1.000000
 FoFCou: FMM=F IPFlag=           0 FMFlag=      100000 FMFlg1=           0
         NFxFlg=           0 DoJE=T BraDBF=F KetDBF=T FulRan=T
         wScrn=  0.000000 ICntrl=     500 IOpCl=  0 I1Cent=   200000004 NGrid=           0
         NMat0=    1 NMatS0=      1 NMatT0=    0 NMatD0=    1 NMtDS0=    0 NMtDT0=    0
 Petite list used in FoFCou.
 Keep R1 ints in memory in canonical form, NReq=679441441.
 Requested convergence on RMS density matrix=1.00D-08 within 128 cycles.
 Requested convergence on MAX density matrix=1.00D-06.
 Requested convergence on             energy=1.00D-06.
 No special actions if energy rises.
 Integral accuracy reduced to 1.0D-05 until final iterations.
 Initial convergence to 1.0D-05 achieved.  Increase integral accuracy.
 SCF Done:  E(RB3LYP) =  -742.910444725     A.U. after   15 cycles
            NFock= 15  Conv=0.73D-08     -V/T= 2.0088

 **********************************************************************

            Population analysis using the SCF density.

 **********************************************************************

 Orbital symmetries:
       Occupied  (A) (A) (A) (A) (A) (A) (A) (A) (A) (A) (A) (A)
                 (A) (A) (A) (A) (A) (A) (A) (A) (A) (A) (A) (A)
                 (A) (A) (A) (A) (A) (A) (A) (A) (A) (A) (A) (A)
                 (A) (A) (A) (A) (A) (A) (A) (A) (A) (A) (A) (A)
                 (A) (A) (A) (A) (A) (A) (A) (A) (A) (A) (A)
       Virtual   (A) (A) (A) (A) (A) (A) (A) (A) (A) (A) (A) (A)
                 (A) (A) (A) (A) (A) (A) (A) (A) (A) (A) (A) (A)
                 (A) (A) (A) (A) (A) (A) (A) (A) (A) (A) (A) (A)
                 (A) (A) (A) (A) (A) (A) (A) (A) (A) (A) (A) (A)
                 (A) (A) (A) (A) (A) (A) (A) (A) (A) (A) (A) (A)
                 (A) (A) (A) (A) (A) (A) (A) (A) (A) (A) (A) (A)
                 (A) (A) (A) (A) (A) (A) (A) (A) (A) (A) (A) (A)
                 (A) (A) (A) (A) (A) (A) (A) (A) (A) (A) (A) (A)
                 (A) (A) (A) (A) (A) (A) (A) (A) (A) (A) (A) (A)
                 (A) (A) (A) (A) (A) (A) (A) (A) (A) (A) (A) (A)
                 (A) (A) (A) (A) (A) (A) (A) (A) (A) (A) (A) (A)
                 (A) (A) (A) (A) (A) (A) (A) (A) (A) (A) (A) (A)
                 (A) (A) (A) (A) (A) (A) (A) (A) (A) (A) (A) (A)
                 (A) (A) (A) (A) (A) (A) (A) (A) (A) (A) (A) (A)
                 (A) (A) (A) (A) (A) (A) (A) (A) (A) (A) (A) (A)
                 (A) (A) (A) (A) (A) (A) (A) (A) (A) (A) (A) (A)
                 (A) (A) (A) (A) (A) (A) (A) (A) (A) (A) (A) (A)
                 (A) (A) (A) (A) (A) (A) (A)
 The electronic state is 1-A.
 Alpha  occ. eigenvalues --  -19.12171 -19.10222 -14.38052 -14.36480 -14.33897
 Alpha  occ. eigenvalues --  -10.30010 -10.28394 -10.24881 -10.23364 -10.22878
 Alpha  occ. eigenvalues --  -10.22865 -10.21574 -10.21360 -10.21310 -10.20733
 Alpha  occ. eigenvalues --  -10.18634  -1.05840  -1.03657  -0.95107  -0.94266
 Alpha  occ. eigenvalues --   -0.92615  -0.84380  -0.79025  -0.76205  -0.74015
 Alpha  occ. eigenvalues --   -0.71792  -0.68093  -0.64545  -0.61300  -0.61115
 Alpha  occ. eigenvalues --   -0.58682  -0.55226  -0.54680  -0.50613  -0.48868
 Alpha  occ. eigenvalues --   -0.48233  -0.47569  -0.46252  -0.45893  -0.44951
 Alpha  occ. eigenvalues --   -0.43993  -0.42779  -0.42604  -0.41722  -0.40885
 Alpha  occ. eigenvalues --   -0.40310  -0.39095  -0.38623  -0.37981  -0.37308
 Alpha  occ. eigenvalues --   -0.36505  -0.35047  -0.28726  -0.27177  -0.26912
 Alpha  occ. eigenvalues --   -0.26390  -0.26225  -0.24846  -0.23632
 Alpha virt. eigenvalues --   -0.03540  -0.01994   0.00843   0.02923   0.03215
 Alpha virt. eigenvalues --    0.07587   0.09346   0.10346   0.10909   0.11241
 Alpha virt. eigenvalues --    0.13800   0.14091   0.15121   0.15361   0.15797
 Alpha virt. eigenvalues --    0.16194   0.17702   0.17958   0.19872   0.20810
 Alpha virt. eigenvalues --    0.21835   0.22080   0.24174   0.25575   0.26169
 Alpha virt. eigenvalues --    0.26325   0.28383   0.30747   0.33693   0.34298
 Alpha virt. eigenvalues --    0.36575   0.38723   0.40531   0.41676   0.43360
 Alpha virt. eigenvalues --    0.45736   0.49253   0.50393   0.51763   0.52100
 Alpha virt. eigenvalues --    0.52544   0.53859   0.54840   0.55996   0.57387
 Alpha virt. eigenvalues --    0.57967   0.58242   0.58620   0.59375   0.61496
 Alpha virt. eigenvalues --    0.62388   0.62828   0.63745   0.64369   0.65111
 Alpha virt. eigenvalues --    0.66825   0.68185   0.69675   0.70326   0.71513
 Alpha virt. eigenvalues --    0.72736   0.73232   0.75016   0.75642   0.77824
 Alpha virt. eigenvalues --    0.78668   0.80462   0.81331   0.81802   0.82897
 Alpha virt. eigenvalues --    0.83699   0.84516   0.84920   0.86059   0.86463
 Alpha virt. eigenvalues --    0.87101   0.87388   0.88047   0.89336   0.89798
 Alpha virt. eigenvalues --    0.90155   0.92131   0.92773   0.93587   0.95199
 Alpha virt. eigenvalues --    0.97090   0.99269   1.00069   1.02979   1.03915
 Alpha virt. eigenvalues --    1.05600   1.06113   1.07730   1.08911   1.10253
 Alpha virt. eigenvalues --    1.11048   1.13525   1.16840   1.18751   1.19596
 Alpha virt. eigenvalues --    1.20387   1.23070   1.23808   1.25755   1.30332
 Alpha virt. eigenvalues --    1.34312   1.36579   1.37893   1.38416   1.38764
 Alpha virt. eigenvalues --    1.41302   1.44683   1.45878   1.46509   1.46880
 Alpha virt. eigenvalues --    1.48623   1.50337   1.51085   1.51214   1.60243
 Alpha virt. eigenvalues --    1.61828   1.64748   1.66951   1.70986   1.73611
 Alpha virt. eigenvalues --    1.76158   1.77471   1.77840   1.79851   1.81374
 Alpha virt. eigenvalues --    1.82278   1.82709   1.83739   1.83949   1.86601
 Alpha virt. eigenvalues --    1.89027   1.89520   1.90635   1.91424   1.92951
 Alpha virt. eigenvalues --    1.93010   1.95470   1.97095   1.99169   2.02733
 Alpha virt. eigenvalues --    2.04952   2.05795   2.08737   2.11144   2.12445
 Alpha virt. eigenvalues --    2.14179   2.15719   2.16922   2.17692   2.18678
 Alpha virt. eigenvalues --    2.21363   2.22548   2.22953   2.24256   2.24645
 Alpha virt. eigenvalues --    2.26353   2.27284   2.31791   2.32791   2.35211
 Alpha virt. eigenvalues --    2.36769   2.39102   2.39360   2.43799   2.45121
 Alpha virt. eigenvalues --    2.46806   2.52416   2.52638   2.53652   2.56195
 Alpha virt. eigenvalues --    2.60330   2.64730   2.65524   2.67904   2.68793
 Alpha virt. eigenvalues --    2.68918   2.71050   2.72578   2.77564   2.77841
 Alpha virt. eigenvalues --    2.83980   2.84424   2.90648   2.96251   2.99454
 Alpha virt. eigenvalues --    3.08711   3.09369   3.10447   3.22995   3.37800
 Alpha virt. eigenvalues --    3.93349   4.02414   4.03781   4.07272   4.11575
 Alpha virt. eigenvalues --    4.19034   4.19850   4.22510   4.25462   4.27244
 Alpha virt. eigenvalues --    4.32341   4.40326   4.50314   4.60079   4.66183
 Alpha virt. eigenvalues --    4.78743
          Condensed to atoms (all electrons):
               1          2          3          4          5          6
     1  C    4.327360  -0.013076   0.319553  -0.012458   0.588789   0.269597
     2  N   -0.013076   7.311241   0.131314  -0.070721   0.002874  -0.005232
     3  C    0.319553   0.131314   5.268057   0.303178  -0.083891  -0.114268
     4  C   -0.012458  -0.070721   0.303178   5.356331  -0.001613   0.000786
     5  O    0.588789   0.002874  -0.083891  -0.001613   8.090339  -0.109714
     6  N    0.269597  -0.005232  -0.114268   0.000786  -0.109714   7.150591
     7  C   -0.026470   0.000270   0.005836  -0.000092  -0.011237   0.259912
     8  C    0.001366   0.272209  -0.011519  -0.006188  -0.000039   0.000572
     9  O   -0.000102  -0.101237   0.003398  -0.000068   0.000000   0.000004
    10  C    0.000936  -0.134320   0.012879  -0.001601  -0.000004  -0.000032
    11  C   -0.003154   0.002399  -0.018665   0.289406  -0.001187  -0.000014
    12  C    0.000000  -0.000150   0.002763  -0.039572  -0.000056   0.000002
    13  N    0.000000   0.000001  -0.000152   0.006069   0.000000   0.000000
    14  C    0.000001   0.000001  -0.000070   0.000447   0.000000   0.000000
    15  C   -0.000019  -0.000064   0.001974   0.008891  -0.000007   0.000000
    16  C   -0.000567   0.000286  -0.015861  -0.087279   0.000694  -0.000014
    17  H   -0.008627   0.260304  -0.037893   0.003882   0.000068   0.004102
    18  H   -0.022202  -0.042579   0.371463  -0.071499   0.002092   0.000390
    19  H    0.001585  -0.000548  -0.049554   0.368026   0.000410  -0.000119
    20  H   -0.001622   0.005034  -0.043196   0.351811   0.008236   0.000567
    21  H   -0.013699   0.000669  -0.002881   0.000318   0.004165   0.282669
    22  H   -0.002305  -0.000048   0.001137  -0.000017   0.023308  -0.036039
    23  H    0.001271  -0.000004  -0.000133   0.000021   0.000708  -0.044185
    24  H    0.001267   0.000000  -0.000180  -0.000005   0.000690  -0.044265
    25  H    0.001517   0.006096  -0.005195  -0.014428   0.000016   0.000019
    26  H   -0.000017   0.002459  -0.000267   0.000336   0.000000   0.000000
    27  H   -0.000026   0.002565  -0.000423  -0.000398   0.000000   0.000000
    28  H   -0.000016   0.000003   0.000149  -0.003763   0.000000   0.000000
    29  H    0.000000   0.000000   0.000000   0.000018   0.000000   0.000000
    30  H   -0.000001   0.000000   0.000049  -0.000172   0.000000   0.000000
    31  H    0.000522   0.000444  -0.022280  -0.008631  -0.000151  -0.000005
               7          8          9         10         11         12
     1  C   -0.026470   0.001366  -0.000102   0.000936  -0.003154   0.000000
     2  N    0.000270   0.272209  -0.101237  -0.134320   0.002399  -0.000150
     3  C    0.005836  -0.011519   0.003398   0.012879  -0.018665   0.002763
     4  C   -0.000092  -0.006188  -0.000068  -0.001601   0.289406  -0.039572
     5  O   -0.011237  -0.000039   0.000000  -0.000004  -0.001187  -0.000056
     6  N    0.259912   0.000572   0.000004  -0.000032  -0.000014   0.000002
     7  C    4.975914  -0.000007   0.000000   0.000001   0.000000   0.000000
     8  C   -0.000007   4.266719   0.609752   0.341894   0.001622  -0.000014
     9  O    0.000000   0.609752   8.068734  -0.092417  -0.000027   0.000000
    10  C    0.000001   0.341894  -0.092417   5.429844  -0.040143  -0.000749
    11  C    0.000000   0.001622  -0.000027  -0.040143   4.908104   0.483172
    12  C    0.000000  -0.000014   0.000000  -0.000749   0.483172   4.892946
    13  N    0.000000   0.000000   0.000000   0.000155  -0.007229   0.435567
    14  C    0.000000   0.000000   0.000000   0.000442  -0.034779  -0.075809
    15  C    0.000000   0.000033   0.000000  -0.000867  -0.032824  -0.039314
    16  C    0.000000   0.001021  -0.000024  -0.029886   0.531471  -0.037148
    17  H   -0.000388   0.001575   0.012947   0.008992  -0.000147   0.000002
    18  H   -0.000077  -0.003826  -0.000007  -0.001020  -0.013195   0.000520
    19  H    0.000004  -0.000949  -0.000391   0.002697  -0.035649  -0.005245
    20  H   -0.000021   0.000084  -0.000001   0.000267  -0.020463  -0.005371
    21  H   -0.025636  -0.000317  -0.000247  -0.000030   0.000001   0.000000
    22  H    0.373153   0.000001   0.000000   0.000000   0.000001   0.000000
    23  H    0.379904   0.000000   0.000000   0.000000   0.000000   0.000000
    24  H    0.380477   0.000000   0.000000   0.000000   0.000000   0.000000
    25  H    0.000000  -0.023125   0.005965   0.284102  -0.011889  -0.003633
    26  H    0.000000  -0.019373  -0.001437   0.365260   0.000410   0.000019
    27  H    0.000000  -0.019854  -0.001210   0.366124   0.002179   0.000372
    28  H    0.000000   0.000000   0.000000  -0.000114  -0.076475   0.381181
    29  H    0.000000   0.000000   0.000000   0.000001   0.000560   0.004783
    30  H    0.000000   0.000000   0.000000  -0.000086   0.004615   0.000620
    31  H    0.000000  -0.000103  -0.000003   0.000309  -0.062439   0.004051
              13         14         15         16         17         18
     1  C    0.000000   0.000001  -0.000019  -0.000567  -0.008627  -0.022202
     2  N    0.000001   0.000001  -0.000064   0.000286   0.260304  -0.042579
     3  C   -0.000152  -0.000070   0.001974  -0.015861  -0.037893   0.371463
     4  C    0.006069   0.000447   0.008891  -0.087279   0.003882  -0.071499
     5  O    0.000000   0.000000  -0.000007   0.000694   0.000068   0.002092
     6  N    0.000000   0.000000   0.000000  -0.000014   0.004102   0.000390
     7  C    0.000000   0.000000   0.000000   0.000000  -0.000388  -0.000077
     8  C    0.000000   0.000000   0.000033   0.001021   0.001575  -0.003826
     9  O    0.000000   0.000000   0.000000  -0.000024   0.012947  -0.000007
    10  C    0.000155   0.000442  -0.000867  -0.029886   0.008992  -0.001020
    11  C   -0.007229  -0.034779  -0.032824   0.531471  -0.000147  -0.013195
    12  C    0.435567  -0.075809  -0.039314  -0.037148   0.000002   0.000520
    13  N    6.697318   0.459443  -0.020266  -0.058296   0.000000  -0.000052
    14  C    0.459443   4.785578   0.506210  -0.036332   0.000000  -0.000050
    15  C   -0.020266   0.506210   4.961118   0.513037   0.000001   0.001017
    16  C   -0.058296  -0.036332   0.513037   5.045465  -0.000002  -0.006626
    17  H    0.000000   0.000000   0.000001  -0.000002   0.421487   0.003281
    18  H   -0.000052  -0.000050   0.001017  -0.006626   0.003281   0.582695
    19  H   -0.000006   0.000029  -0.000138   0.002101   0.000610   0.004350
    20  H   -0.000008   0.000024  -0.000086   0.002439  -0.000088   0.004533
    21  H    0.000000   0.000000   0.000000  -0.000004   0.013723   0.000002
    22  H    0.000000   0.000000   0.000000   0.000000  -0.000005  -0.000019
    23  H    0.000000   0.000000   0.000000   0.000000  -0.000005  -0.000004
    24  H    0.000000   0.000000   0.000000   0.000000  -0.000014   0.000021
    25  H   -0.000154  -0.000163  -0.003408  -0.010591  -0.001095  -0.008342
    26  H    0.000000  -0.000016   0.000128   0.001268  -0.000130   0.000390
    27  H   -0.000037  -0.000006   0.000024   0.000432  -0.000131  -0.000004
    28  H   -0.048856   0.005047   0.000161   0.004583   0.000000   0.000024
    29  H   -0.050042   0.377585  -0.065091   0.004202   0.000000   0.000000
    30  H    0.004430  -0.034163   0.346535  -0.038510   0.000000   0.000059
    31  H   -0.000157   0.004267  -0.026441   0.360898  -0.000035   0.017384
              19         20         21         22         23         24
     1  C    0.001585  -0.001622  -0.013699  -0.002305   0.001271   0.001267
     2  N   -0.000548   0.005034   0.000669  -0.000048  -0.000004   0.000000
     3  C   -0.049554  -0.043196  -0.002881   0.001137  -0.000133  -0.000180
     4  C    0.368026   0.351811   0.000318  -0.000017   0.000021  -0.000005
     5  O    0.000410   0.008236   0.004165   0.023308   0.000708   0.000690
     6  N   -0.000119   0.000567   0.282669  -0.036039  -0.044185  -0.044265
     7  C    0.000004  -0.000021  -0.025636   0.373153   0.379904   0.380477
     8  C   -0.000949   0.000084  -0.000317   0.000001   0.000000   0.000000
     9  O   -0.000391  -0.000001  -0.000247   0.000000   0.000000   0.000000
    10  C    0.002697   0.000267  -0.000030   0.000000   0.000000   0.000000
    11  C   -0.035649  -0.020463   0.000001   0.000001   0.000000   0.000000
    12  C   -0.005245  -0.005371   0.000000   0.000000   0.000000   0.000000
    13  N   -0.000006  -0.000008   0.000000   0.000000   0.000000   0.000000
    14  C    0.000029   0.000024   0.000000   0.000000   0.000000   0.000000
    15  C   -0.000138  -0.000086   0.000000   0.000000   0.000000   0.000000
    16  C    0.002101   0.002439  -0.000004   0.000000   0.000000   0.000000
    17  H    0.000610  -0.000088   0.013723  -0.000005  -0.000005  -0.000014
    18  H    0.004350   0.004533   0.000002  -0.000019  -0.000004   0.000021
    19  H    0.549757  -0.018365  -0.000085   0.000000  -0.000001   0.000000
    20  H   -0.018365   0.516773  -0.000069  -0.000031   0.000012  -0.000001
    21  H   -0.000085  -0.000069   0.419287   0.003437  -0.000550  -0.000526
    22  H    0.000000  -0.000031   0.003437   0.468061  -0.023206  -0.023115
    23  H   -0.000001   0.000012  -0.000550  -0.023206   0.563282  -0.036530
    24  H    0.000000  -0.000001  -0.000526  -0.023115  -0.036530   0.562174
    25  H   -0.006468   0.001324   0.000022   0.000000   0.000000   0.000000
    26  H    0.000288  -0.000013  -0.000001   0.000000   0.000000   0.000000
    27  H    0.000706  -0.000004  -0.000001   0.000000   0.000000   0.000000
    28  H    0.002405   0.002383   0.000000   0.000000   0.000000   0.000000
    29  H    0.000000   0.000000   0.000000   0.000000   0.000000   0.000000
    30  H    0.000003   0.000003   0.000000   0.000000   0.000000   0.000000
    31  H    0.000008  -0.000094  -0.000001   0.000000   0.000000   0.000000
              25         26         27         28         29         30
     1  C    0.001517  -0.000017  -0.000026  -0.000016   0.000000  -0.000001
     2  N    0.006096   0.002459   0.002565   0.000003   0.000000   0.000000
     3  C   -0.005195  -0.000267  -0.000423   0.000149   0.000000   0.000049
     4  C   -0.014428   0.000336  -0.000398  -0.003763   0.000018  -0.000172
     5  O    0.000016   0.000000   0.000000   0.000000   0.000000   0.000000
     6  N    0.000019   0.000000   0.000000   0.000000   0.000000   0.000000
     7  C    0.000000   0.000000   0.000000   0.000000   0.000000   0.000000
     8  C   -0.023125  -0.019373  -0.019854   0.000000   0.000000   0.000000
     9  O    0.005965  -0.001437  -0.001210   0.000000   0.000000   0.000000
    10  C    0.284102   0.365260   0.366124  -0.000114   0.000001  -0.000086
    11  C   -0.011889   0.000410   0.002179  -0.076475   0.000560   0.004615
    12  C   -0.003633   0.000019   0.000372   0.381181   0.004783   0.000620
    13  N   -0.000154   0.000000  -0.000037  -0.048856  -0.050042   0.004430
    14  C   -0.000163  -0.000016  -0.000006   0.005047   0.377585  -0.034163
    15  C   -0.003408   0.000128   0.000024   0.000161  -0.065091   0.346535
    16  C   -0.010591   0.001268   0.000432   0.004583   0.004202  -0.038510
    17  H   -0.001095  -0.000130  -0.000131   0.000000   0.000000   0.000000
    18  H   -0.008342   0.000390  -0.000004   0.000024   0.000000   0.000059
    19  H   -0.006468   0.000288   0.000706   0.002405   0.000000   0.000003
    20  H    0.001324  -0.000013  -0.000004   0.002383   0.000000   0.000003
    21  H    0.000022  -0.000001  -0.000001   0.000000   0.000000   0.000000
    22  H    0.000000   0.000000   0.000000   0.000000   0.000000   0.000000
    23  H    0.000000   0.000000   0.000000   0.000000   0.000000   0.000000
    24  H    0.000000   0.000000   0.000000   0.000000   0.000000   0.000000
    25  H    0.717145  -0.028914  -0.029683   0.000170   0.000003   0.000141
    26  H   -0.028914   0.519679  -0.018225   0.000001   0.000000   0.000009
    27  H   -0.029683  -0.018225   0.514285   0.000004   0.000000   0.000000
    28  H    0.000170   0.000001   0.000004   0.590629  -0.000134   0.000025
    29  H    0.000003   0.000000   0.000000  -0.000134   0.585892  -0.002131
    30  H    0.000141   0.000009   0.000000   0.000025  -0.002131   0.580293
    31  H   -0.007888   0.000144   0.000067  -0.000201  -0.000179  -0.005361
              31
     1  C    0.000522
     2  N    0.000444
     3  C   -0.022280
     4  C   -0.008631
     5  O   -0.000151
     6  N   -0.000005
     7  C    0.000000
     8  C   -0.000103
     9  O   -0.000003
    10  C    0.000309
    11  C   -0.062439
    12  C    0.004051
    13  N   -0.000157
    14  C    0.004267
    15  C   -0.026441
    16  C    0.360898
    17  H   -0.000035
    18  H    0.017384
    19  H    0.000008
    20  H   -0.000094
    21  H   -0.000001
    22  H    0.000000
    23  H    0.000000
    24  H    0.000000
    25  H   -0.007888
    26  H    0.000144
    27  H    0.000067
    28  H   -0.000201
    29  H   -0.000179
    30  H   -0.005361
    31  H    0.578321
 Mulliken charges:
               1
     1  C    0.590597
     2  N   -0.630189
     3  C   -0.015320
     4  C   -0.371012
     5  O   -0.514488
     6  N   -0.615324
     7  C   -0.311543
     8  C    0.588465
     9  O   -0.503631
    10  C   -0.512633
    11  C    0.134343
    12  C    0.001062
    13  N   -0.417727
    14  C    0.042315
    15  C   -0.150604
    16  C   -0.146758
    17  H    0.317587
    18  H    0.181281
    19  H    0.184538
    20  H    0.195946
    21  H    0.319753
    22  H    0.215689
    23  H    0.159420
    24  H    0.160007
    25  H    0.138458
    26  H    0.178002
    27  H    0.183246
    28  H    0.142793
    29  H    0.144533
    30  H    0.143641
    31  H    0.167554
 Sum of Mulliken charges =   0.00000
 Mulliken charges with hydrogens summed into heavy atoms:
               1
     1  C    0.590597
     2  N   -0.312602
     3  C    0.165961
     4  C    0.009472
     5  O   -0.514488
     6  N   -0.295571
     7  C    0.223573
     8  C    0.588465
     9  O   -0.503631
    10  C   -0.012928
    11  C    0.134343
    12  C    0.143855
    13  N   -0.417727
    14  C    0.186848
    15  C   -0.006963
    16  C    0.020796
 Electronic spatial extent (au):  <R**2>=           4088.0049
 Charge=              0.0000 electrons
 Dipole moment (field-independent basis, Debye):
    X=             -2.3733    Y=             -0.8806    Z=             -1.1502  Tot=              2.7804
 Quadrupole moment (field-independent basis, Debye-Ang):
   XX=            -85.7093   YY=           -118.5526   ZZ=            -88.8388
   XY=              6.9871   XZ=             -7.9952   YZ=             -0.3370
 Traceless Quadrupole moment (field-independent basis, Debye-Ang):
   XX=             11.9909   YY=            -20.8523   ZZ=              8.8614
   XY=              6.9871   XZ=             -7.9952   YZ=             -0.3370
 Octapole moment (field-independent basis, Debye-Ang**2):
  XXX=           -121.4888  YYY=            -49.6562  ZZZ=             -2.7273  XYY=             18.6508
  XXY=             -3.1101  XXZ=            -33.9962  XZZ=             -2.3328  YZZ=              2.3367
  YYZ=              0.1093  XYZ=              9.3351
 Hexadecapole moment (field-independent basis, Debye-Ang**3):
 XXXX=          -3294.0185 YYYY=          -1766.0349 ZZZZ=           -374.3873 XXXY=             69.1319
 XXXZ=           -167.5634 YYYX=            121.7821 YYYZ=            -13.9007 ZZZX=            -13.0827
 ZZZY=              2.3691 XXYY=           -845.6614 XXZZ=           -651.7161 YYZZ=           -300.8143
 XXYZ=             36.7221 YYXZ=             -5.5137 ZZXY=              4.6685
 N-N= 1.112730052446D+03 E-N=-3.954034216764D+03  KE= 7.364336274866D+02
 Calling FoFJK, ICntrl=      2127 FMM=F ISym2X=0 I1Cent= 0 IOpClX= 0 NMat=1 NMatS=1 NMatT=0.
 ***** Axes restored to original set *****
 -------------------------------------------------------------------
 Center     Atomic                   Forces (Hartrees/Bohr)
 Number     Number              X              Y              Z
 -------------------------------------------------------------------
      1        6           0.017240861    0.004646813   -0.002432078
      2        7          -0.017066475    0.009783768    0.001616288
      3        6           0.032295246   -0.008761237   -0.010339817
      4        6          -0.005021834   -0.013533530    0.012261651
      5        8          -0.020960100    0.004652644    0.027230384
      6        7          -0.008471692    0.001327952   -0.004796795
      7        6           0.013031311   -0.002525866    0.004676796
      8        6           0.009504793   -0.000642932   -0.009001854
      9        8           0.018517080   -0.005638266   -0.027616454
     10        6          -0.006719594    0.007020611    0.012982034
     11        6          -0.004344370    0.000455424    0.019850656
     12        6          -0.015829156    0.000640062    0.001559207
     13        7           0.007341938    0.005036469   -0.001264062
     14        6          -0.011919040   -0.008299158    0.000707016
     15        6           0.008111921    0.010292862   -0.000774776
     16        6          -0.018739046    0.017014948    0.014553120
     17        1          -0.011189304    0.002096187   -0.017563892
     18        1           0.029918787   -0.020694730    0.005951247
     19        1           0.001290516    0.003845190    0.013869660
     20        1          -0.003856424    0.003450746   -0.011130279
     21        1           0.007221983   -0.000551111    0.013395425
     22        1           0.005547732   -0.001992011   -0.015613841
     23        1          -0.002288251    0.010563082    0.002223475
     24        1          -0.006146251   -0.008555353    0.003309470
     25        1           0.001610776    0.000560677   -0.046410679
     26        1           0.002378435   -0.011515299    0.004537372
     27        1           0.005796038    0.010332160    0.004399268
     28        1          -0.005419523    0.006560474    0.000027569
     29        1           0.004279669   -0.008740668    0.000253942
     30        1           0.000288677   -0.009586387    0.000431705
     31        1          -0.026404703    0.002756477    0.003108242
 -------------------------------------------------------------------
 Cartesian Forces:  Max     0.046410679 RMS     0.012142653

 GradGradGradGradGradGradGradGradGradGradGradGradGradGradGradGradGradGrad
 Berny optimization.
 FormGI is forming the generalized inverse of G from B-inverse, IUseBI=4.
 Internal  Forces:  Max     0.156052927 RMS     0.028562118
 Search for a local minimum.
 Step number   1 out of a maximum of  160
 All quantities printed in internal units (Hartrees-Bohrs-Radians)
 Mixed Optimization -- RFO/linear search
 Second derivative matrix not updated -- first step.
 ITU=  0
     Eigenvalues ---    0.00460   0.00647   0.00647   0.00806   0.01031
     Eigenvalues ---    0.01031   0.01229   0.01229   0.01459   0.01460
     Eigenvalues ---    0.01646   0.02102   0.02103   0.02208   0.02225
     Eigenvalues ---    0.02243   0.02269   0.02295   0.02300   0.02324
     Eigenvalues ---    0.04617   0.05055   0.05237   0.05622   0.06409
     Eigenvalues ---    0.07469   0.07473   0.07682   0.07686   0.08899
     Eigenvalues ---    0.12479   0.16000   0.16000   0.16000   0.16000
     Eigenvalues ---    0.16000   0.16000   0.16000   0.16000   0.16000
     Eigenvalues ---    0.16000   0.16000   0.16000   0.16931   0.18053
     Eigenvalues ---    0.21989   0.22000   0.22000   0.22000   0.23181
     Eigenvalues ---    0.23457   0.25000   0.25000   0.25000   0.25000
     Eigenvalues ---    0.25000   0.30070   0.31452   0.31454   0.32278
     Eigenvalues ---    0.32279   0.32281   0.32281   0.32282   0.32283
     Eigenvalues ---    0.32287   0.32287   0.32287   0.32700   0.33677
     Eigenvalues ---    0.33681   0.33684   0.33687   0.38249   0.38250
     Eigenvalues ---    0.43555   0.44714   0.45634   0.45651   0.47360
     Eigenvalues ---    0.48062   0.51167   0.51181   0.53015   0.54159
     Eigenvalues ---    1.00900   1.00905
 RFO step:  Lambda=-2.54373569D-01 EMin= 4.60333213D-03
 Linear search not attempted -- first point.
 Maximum step size (   0.300) exceeded in Quadratic search.
    -- Step size scaled by   0.439
 Iteration  1 RMS(Cart)=  0.24779399 RMS(Int)=  0.01047603
 Iteration  2 RMS(Cart)=  0.06153051 RMS(Int)=  0.00059733
 Iteration  3 RMS(Cart)=  0.00131260 RMS(Int)=  0.00032242
 Iteration  4 RMS(Cart)=  0.00000092 RMS(Int)=  0.00032242
 Variable       Old X    -DE/DX   Delta X   Delta X   Delta X     New X
                                 (Linear)    (Quad)   (Total)
    R1        2.85159   0.02461   0.00000   0.01901   0.01901   2.87060
    R2        2.28279   0.03327   0.00000   0.01157   0.01157   2.29436
    R3        2.58705   0.00853   0.00000   0.00490   0.00490   2.59195
    R4        2.74003   0.06451   0.00000   0.04452   0.04452   2.78455
    R5        2.58692   0.03977   0.00000   0.02281   0.02281   2.60973
    R6        1.91247  -0.01215   0.00000  -0.00751  -0.00751   1.90495
    R7        2.87825   0.04798   0.00000   0.03799   0.03799   2.91624
    R8        2.10332  -0.03122   0.00000  -0.02377  -0.02377   2.07955
    R9        2.82881   0.06426   0.00000   0.04858   0.04858   2.87739
   R10        2.10322  -0.01329   0.00000  -0.01012  -0.01012   2.09310
   R11        2.10339  -0.01165   0.00000  -0.00887  -0.00887   2.09452
   R12        2.74005   0.00215   0.00000   0.00149   0.00149   2.74154
   R13        1.91227  -0.00976   0.00000  -0.00603  -0.00603   1.90624
   R14        2.10336  -0.01633   0.00000  -0.01243  -0.01243   2.09093
   R15        2.10332  -0.01054   0.00000  -0.00802  -0.00802   2.09530
   R16        2.10329  -0.01056   0.00000  -0.00804  -0.00804   2.09525
   R17        2.28280   0.03370   0.00000   0.01172   0.01172   2.29453
   R18        2.85154  -0.00070   0.00000  -0.00054  -0.00054   2.85100
   R19        2.10321  -0.04346   0.00000  -0.03309  -0.03309   2.07012
   R20        2.10330  -0.01237   0.00000  -0.00942  -0.00942   2.09388
   R21        2.10322  -0.01256   0.00000  -0.00957  -0.00957   2.09365
   R22        2.61873   0.01747   0.00000   0.01073   0.01076   2.62949
   R23        2.62870   0.02792   0.00000   0.01759   0.01762   2.64632
   R24        2.55284  -0.01342   0.00000  -0.00767  -0.00766   2.54518
   R25        2.07878  -0.00692   0.00000  -0.00515  -0.00515   2.07363
   R26        2.55278  -0.02226   0.00000  -0.01280  -0.01283   2.53996
   R27        2.61871   0.00275   0.00000   0.00132   0.00128   2.61999
   R28        2.07872  -0.00763   0.00000  -0.00567  -0.00567   2.07305
   R29        2.62852   0.00153   0.00000   0.00130   0.00129   2.62980
   R30        2.07867  -0.00958   0.00000  -0.00712  -0.00712   2.07155
   R31        2.07861  -0.02046   0.00000  -0.01521  -0.01521   2.06340
    A1        2.09437  -0.01999   0.00000  -0.01742  -0.01742   2.07695
    A2        2.09437   0.01779   0.00000   0.01550   0.01550   2.10987
    A3        2.09444   0.00220   0.00000   0.00192   0.00192   2.09636
    A4        2.09446   0.15605   0.00000   0.14458   0.14458   2.23903
    A5        2.09435  -0.06175   0.00000  -0.05503  -0.05503   2.03932
    A6        2.09438  -0.09430   0.00000  -0.08956  -0.08956   2.00482
    A7        1.91018  -0.00417   0.00000  -0.00567  -0.00498   1.90519
    A8        1.91011  -0.04137   0.00000  -0.04310  -0.04293   1.86718
    A9        1.91157  -0.00356   0.00000  -0.01247  -0.01247   1.89910
   A10        1.91110   0.04544   0.00000   0.04859   0.04825   1.95935
   A11        1.91046  -0.00849   0.00000  -0.00415  -0.00503   1.90543
   A12        1.91038   0.01218   0.00000   0.01681   0.01599   1.92637
   A13        1.91111   0.13965   0.00000   0.13203   0.13228   2.04339
   A14        1.91010  -0.04252   0.00000  -0.03719  -0.03851   1.87160
   A15        1.91041  -0.02959   0.00000  -0.02622  -0.02502   1.88539
   A16        1.91014  -0.02244   0.00000  -0.01258  -0.01318   1.89696
   A17        1.91050  -0.06071   0.00000  -0.06175  -0.06152   1.84898
   A18        1.91153   0.01571   0.00000   0.00579   0.00420   1.91573
   A19        2.09435   0.00467   0.00000   0.00433   0.00433   2.09868
   A20        2.09438   0.00884   0.00000   0.00969   0.00969   2.10407
   A21        2.09445  -0.01352   0.00000  -0.01402  -0.01402   2.08043
   A22        1.91120  -0.00715   0.00000  -0.00776  -0.00775   1.90345
   A23        1.91013   0.00520   0.00000   0.00560   0.00560   1.91572
   A24        1.91048   0.00504   0.00000   0.00543   0.00543   1.91591
   A25        1.91014   0.00017   0.00000   0.00001   0.00002   1.91016
   A26        1.91042   0.00017   0.00000   0.00000   0.00000   1.91042
   A27        1.91144  -0.00344   0.00000  -0.00329  -0.00331   1.90813
   A28        2.09440  -0.03704   0.00000  -0.03227  -0.03228   2.06212
   A29        2.09438   0.07100   0.00000   0.06186   0.06186   2.15624
   A30        2.09441  -0.03396   0.00000  -0.02959  -0.02960   2.06481
   A31        1.91115   0.02630   0.00000   0.02862   0.02860   1.93975
   A32        1.91013  -0.00634   0.00000  -0.00726  -0.00728   1.90285
   A33        1.91055  -0.00349   0.00000  -0.00390  -0.00395   1.90660
   A34        1.91003  -0.00821   0.00000  -0.00832  -0.00831   1.90172
   A35        1.91056  -0.00651   0.00000  -0.00582  -0.00588   1.90468
   A36        1.91139  -0.00174   0.00000  -0.00331  -0.00336   1.90803
   A37        2.10976  -0.06085   0.00000  -0.05368  -0.05373   2.05604
   A38        2.10984   0.09281   0.00000   0.08021   0.08016   2.19000
   A39        2.06358  -0.03195   0.00000  -0.02652  -0.02646   2.03712
   A40        2.16065   0.02110   0.00000   0.01929   0.01934   2.17999
   A41        2.06129  -0.00541   0.00000  -0.00419  -0.00422   2.05708
   A42        2.06124  -0.01570   0.00000  -0.01510  -0.01513   2.04612
   A43        2.03539   0.00398   0.00000   0.00097   0.00094   2.03634
   A44        2.16076  -0.00388   0.00000  -0.00521  -0.00527   2.15549
   A45        2.06125  -0.00434   0.00000  -0.00406  -0.00403   2.05722
   A46        2.06117   0.00823   0.00000   0.00927   0.00930   2.07047
   A47        2.06353   0.00638   0.00000   0.00590   0.00585   2.06938
   A48        2.10977  -0.00385   0.00000  -0.00365  -0.00363   2.10615
   A49        2.10988  -0.00253   0.00000  -0.00225  -0.00222   2.10766
   A50        2.08246   0.00437   0.00000   0.00557   0.00559   2.08805
   A51        2.10039   0.01561   0.00000   0.01608   0.01607   2.11646
   A52        2.10034  -0.01997   0.00000  -0.02166  -0.02166   2.07868
    D1        3.14157  -0.01372   0.00000  -0.01431  -0.01444   3.12714
    D2       -1.04724   0.01406   0.00000   0.01536   0.01524  -1.03200
    D3        1.04710   0.00142   0.00000   0.00189   0.00213   1.04923
    D4        0.00004  -0.01425   0.00000  -0.01517  -0.01530  -0.01526
    D5        2.09441   0.01353   0.00000   0.01449   0.01438   2.10879
    D6       -2.09443   0.00090   0.00000   0.00102   0.00127  -2.09317
    D7        3.14154   0.00037   0.00000   0.00061   0.00061  -3.14103
    D8        0.00000   0.00036   0.00000   0.00058   0.00059   0.00058
    D9        0.00000  -0.00015   0.00000  -0.00025  -0.00026  -0.00025
   D10       -3.14154  -0.00017   0.00000  -0.00028  -0.00029   3.14136
   D11        3.14152   0.00340   0.00000   0.01122   0.01122  -3.13044
   D12        1.04776   0.02882   0.00000   0.03775   0.03772   1.08547
   D13       -1.04651  -0.00872   0.00000  -0.01005  -0.00997  -1.05648
   D14       -0.00004   0.00077   0.00000   0.00693   0.00690   0.00686
   D15       -2.09380   0.02620   0.00000   0.03346   0.03339  -2.06041
   D16        2.09511  -0.01135   0.00000  -0.01435  -0.01429   2.08082
   D17        3.14156   0.00408   0.00000   0.00637   0.00639  -3.13523
   D18        0.00002   0.00776   0.00000   0.01243   0.01245   0.01247
   D19       -0.00007   0.00671   0.00000   0.01066   0.01064   0.01058
   D20        3.14158   0.01039   0.00000   0.01673   0.01670  -3.12490
   D21        2.09502  -0.03240   0.00000  -0.04896  -0.04856   2.04645
   D22       -2.09441  -0.00050   0.00000  -0.00639  -0.00659  -2.10100
   D23        0.00063  -0.02541   0.00000  -0.03810  -0.03786  -0.03722
   D24       -2.09437  -0.03505   0.00000  -0.05257  -0.05279  -2.14716
   D25       -0.00060  -0.00315   0.00000  -0.01000  -0.01082  -0.01143
   D26        2.09443  -0.02806   0.00000  -0.04172  -0.04209   2.05234
   D27       -0.00005  -0.01016   0.00000  -0.01760  -0.01702  -0.01708
   D28        2.09371   0.02174   0.00000   0.02497   0.02495   2.11866
   D29       -2.09444  -0.00317   0.00000  -0.00674  -0.00632  -2.10076
   D30       -3.14158  -0.00167   0.00000  -0.00159  -0.00036   3.14125
   D31        0.00003  -0.00635   0.00000  -0.00919  -0.00804  -0.00801
   D32        1.04787  -0.02128   0.00000  -0.02910  -0.02919   1.01867
   D33       -2.09371  -0.02596   0.00000  -0.03670  -0.03687  -2.13058
   D34       -1.04724   0.01040   0.00000   0.00931   0.00829  -1.03895
   D35        2.09436   0.00571   0.00000   0.00171   0.00062   2.09498
   D36       -0.00002  -0.00003   0.00000  -0.00005  -0.00005  -0.00006
   D37        2.09381  -0.00102   0.00000  -0.00135  -0.00136   2.09245
   D38       -2.09440   0.00104   0.00000   0.00138   0.00139  -2.09300
   D39        3.14153  -0.00002   0.00000  -0.00002  -0.00002   3.14151
   D40       -1.04783  -0.00100   0.00000  -0.00132  -0.00133  -1.04916
   D41        1.04715   0.00106   0.00000   0.00141   0.00142   1.04857
   D42        0.00005   0.00096   0.00000   0.00123   0.00126   0.00131
   D43        2.09372   0.00311   0.00000   0.00411   0.00409   2.09780
   D44       -2.09451  -0.00504   0.00000  -0.00678  -0.00678  -2.10130
   D45       -3.14149   0.00464   0.00000   0.00730   0.00732  -3.13416
   D46       -1.04782   0.00679   0.00000   0.01017   0.01015  -1.03767
   D47        1.04713  -0.00136   0.00000  -0.00072  -0.00072   1.04641
   D48        3.14155  -0.00169   0.00000  -0.00277  -0.00244   3.13911
   D49       -0.00005  -0.00251   0.00000  -0.00407  -0.00381  -0.00387
   D50       -0.00006   0.00287   0.00000   0.00463   0.00456   0.00450
   D51        3.14152   0.00206   0.00000   0.00333   0.00319  -3.13848
   D52       -3.14159   0.00209   0.00000   0.00341   0.00365  -3.13794
   D53        0.00001   0.00173   0.00000   0.00284   0.00303   0.00304
   D54        0.00002  -0.00247   0.00000  -0.00399  -0.00395  -0.00393
   D55       -3.14157  -0.00283   0.00000  -0.00456  -0.00458   3.13704
   D56        0.00007  -0.00132   0.00000  -0.00212  -0.00209  -0.00202
   D57       -3.14151  -0.00051   0.00000  -0.00083  -0.00072   3.14095
   D58       -0.00004  -0.00062   0.00000  -0.00100  -0.00103  -0.00107
   D59       -3.14158   0.00031   0.00000   0.00050   0.00047  -3.14111
   D60        0.00001   0.00089   0.00000   0.00143   0.00140   0.00141
   D61       -3.14153   0.00112   0.00000   0.00181   0.00184  -3.13969
   D62        3.14154  -0.00004   0.00000  -0.00007  -0.00011   3.14143
   D63        0.00001   0.00019   0.00000   0.00031   0.00033   0.00034
   D64        0.00000   0.00072   0.00000   0.00117   0.00124   0.00124
   D65        3.14159   0.00108   0.00000   0.00174   0.00185  -3.13974
   D66        3.14154   0.00049   0.00000   0.00080   0.00080  -3.14085
   D67       -0.00006   0.00085   0.00000   0.00136   0.00141   0.00135
         Item               Value     Threshold  Converged?
 Maximum Force            0.156053     0.000450     NO 
 RMS     Force            0.028562     0.000300     NO 
 Maximum Displacement     1.199702     0.001800     NO 
 RMS     Displacement     0.303039     0.001200     NO 
 Predicted change in Energy=-1.007503D-01
 GradGradGradGradGradGradGradGradGradGradGradGradGradGradGradGradGradGrad

                          Input orientation:                          
 ---------------------------------------------------------------------
 Center     Atomic      Atomic             Coordinates (Angstroms)
 Number     Number       Type             X           Y           Z
 ---------------------------------------------------------------------
      1          6           0        1.741831   -0.006591    1.216472
      2          7           0        1.574171   -0.187440   -1.209890
      3          6           0        0.824767    0.143756    0.014838
      4          6           0       -0.373274   -0.802306    0.241016
      5          8           0        1.307040    0.239000    2.323149
      6          7           0        3.042502   -0.413993    1.062948
      7          6           0        3.906003   -0.553583    2.220351
      8          6           0        1.128417   -0.169986   -2.516866
      9          8           0        1.908017   -0.486492   -3.392284
     10          6           0       -0.271258    0.228114   -2.915058
     11          6           0       -1.748905   -0.161344    0.364553
     12          6           0       -2.839978   -1.000516    0.568337
     13          7           0       -4.115392   -0.588185    0.699929
     14          6           0       -4.331655    0.736474    0.628676
     15          6           0       -3.322885    1.667051    0.432136
     16          6           0       -2.014480    1.212057    0.299121
     17          1           0        2.537729   -0.460133   -1.094231
     18          1           0        0.482761    1.188165   -0.042031
     19          1           0       -0.389990   -1.518420   -0.603807
     20          1           0       -0.205094   -1.347550    1.191230
     21          1           0        3.410586   -0.619983    0.146631
     22          1           0        3.336029   -0.287376    3.130593
     23          1           0        4.260042   -1.601317    2.299788
     24          1           0        4.779264    0.122280    2.120517
     25          1           0       -0.870143    0.496889   -2.038055
     26          1           0       -0.218687    1.100471   -3.596208
     27          1           0       -0.756121   -0.618371   -3.440262
     28          1           0       -2.652842   -2.080238    0.625663
     29          1           0       -5.363416    1.094027    0.733815
     30          1           0       -3.551760    2.737991    0.383165
     31          1           0       -1.212980    1.937548    0.145767
 ---------------------------------------------------------------------
                    Distance matrix (angstroms):
                    1          2          3          4          5
     1  C    0.000000
     2  N    2.438862   0.000000
     3  C    1.519057   1.473519   0.000000
     4  C    2.461371   2.505141   1.543208   0.000000
     5  O    1.214122   3.568694   2.360076   2.871071   0.000000
     6  N    1.371601   2.715348   2.515544   3.534668   2.241949
     7  C    2.447573   4.163899   3.852867   4.721423   2.719074
     8  C    3.786923   1.381010   2.569078   3.203251   4.860548
     9  O    4.636653   2.227942   3.630307   4.301731   5.792555
    10  C    4.601863   2.546741   3.129325   3.321592   5.470827
    11  C    3.596519   3.677280   2.615181   1.522647   3.651735
    12  C    4.732964   4.827826   3.878927   2.496209   4.670495
    13  N    5.908649   6.014910   5.040859   3.776228   5.720301
    14  C    6.146941   6.254017   5.226547   4.264611   5.908773
    15  C    5.391439   5.487855   4.438196   3.851553   5.201103
    16  C    4.054196   4.136922   3.046868   2.598960   4.009492
    17  H    2.485659   1.008058   2.128134   3.220854   3.698901
    18  H    2.143952   2.108877   1.100451   2.185151   2.678512
    19  H    3.184918   2.448832   2.149695   1.107621   3.812546
    20  H    2.364175   3.205779   2.160673   1.108370   2.466765
    21  H    2.074982   2.323717   2.699468   3.789425   3.146425
    22  H    2.506824   4.685501   4.024952   4.730088   2.246293
    23  H    3.171452   4.640128   4.479664   5.132696   3.479588
    24  H    3.171735   4.632511   4.480222   5.562016   3.480089
    25  H    4.203314   2.669988   2.685478   2.670009   4.881264
    26  H    5.313295   3.250780   3.878628   4.285877   6.173230
    27  H    5.319700   3.254308   3.875275   3.705699   6.181312
    28  H    4.895122   4.981926   4.172892   2.641495   4.892953
    29  H    7.206168   7.317805   6.301869   5.361012   6.910285
    30  H    6.020734   6.113195   5.100952   4.759904   5.797968
    31  H    3.695537   3.757871   2.717949   2.867225   3.738524
                    6          7          8          9         10
     6  N    0.000000
     7  C    1.450759   0.000000
     8  C    4.066734   5.504848   0.000000
     9  O    4.597978   5.958030   1.214211   0.000000
    10  C    5.217071   6.665806   1.508684   2.342572   0.000000
    11  C    4.848624   5.964547   4.072055   5.252868   3.618144
    12  C    5.932303   6.959681   5.094744   6.204370   4.499100
    13  N    7.169209   8.164291   6.166051   7.282720   5.339648
    14  C    7.475985   8.488621   6.366198   7.523115   5.413252
    15  C    6.726576   7.770827   5.646717   6.828344   4.752545
    16  C    5.366613   6.469987   4.440453   5.647789   3.786543
    17  H    2.215929   3.587110   2.023422   2.382914   3.417528
    18  H    3.215612   4.457650   2.895903   4.007496   3.121622
    19  H    3.972383   5.230902   2.789916   3.757835   2.899373
    20  H    3.381547   4.311680   4.112771   5.120084   4.398715
    21  H    1.008739   2.133111   3.536242   3.847005   4.863042
    22  H    2.092211   1.106470   6.064744   6.680328   7.058905
    23  H    2.102835   1.108783   5.920805   6.258957   7.146615
    24  H    2.102947   1.108756   5.909266   6.245449   7.132740
    25  H    5.074910   6.484527   2.160608   3.243324   1.095462
    26  H    5.885294   7.319926   2.143299   2.661373   1.108033
    27  H    5.894930   7.333630   2.145971   2.667831   1.107912
    28  H    5.950171   6.920416   5.274701   6.283739   4.851509
    29  H    8.546456   9.531345   7.369434   8.508612   6.324093
    30  H    7.340395   8.356312   6.226602   7.379734   5.285779
    31  H    4.947736   6.059176   4.124737   5.304187   3.630104
                   11         12         13         14         15
    11  C    0.000000
    12  C    1.391467   0.000000
    13  N    2.427948   1.346853   0.000000
    14  C    2.747078   2.290387   1.344087   0.000000
    15  C    2.413506   2.714344   2.405384   1.386440   0.000000
    16  C    1.400372   2.376848   2.795595   2.388322   1.391631
    17  H    4.537902   5.654722   6.891983   7.182528   6.418840
    18  H    2.639472   4.025353   4.984870   4.881851   3.864856
    19  H    2.150820   2.764885   4.055081   4.705346   4.452222
    20  H    2.115144   2.729660   4.013533   4.657052   4.402803
    21  H    5.184417   6.276320   7.546356   7.874937   7.116999
    22  H    5.789941   6.724343   7.843614   8.130266   7.445978
    23  H    6.475036   7.332746   8.586843   9.059532   8.465881
    24  H    6.766154   7.856385   9.035360   9.252657   8.419131
    25  H    2.641593   3.593849   4.382417   4.376176   3.672475
    26  H    4.429602   5.350584   6.040916   5.907507   5.117091
    27  H    3.958675   4.534023   5.331678   5.583574   5.177538
    28  H    2.137157   1.097317   2.090643   3.279068   3.811638
    29  H    3.844087   3.283631   2.094887   1.097010   2.140825
    30  H    3.414202   3.810165   3.388432   2.162078   1.096218
    31  H    2.177253   3.384954   3.887213   3.376672   2.146364
                   16         17         18         19         20
    16  C    0.000000
    17  H    5.045816   0.000000
    18  H    2.520549   2.836707   0.000000
[...]
 Alpha virt. eigenvalues --    1.21282   1.21984   1.25570   1.29258   1.30945
 Alpha virt. eigenvalues --    1.31306   1.32845   1.34938   1.37838   1.39266
 Alpha virt. eigenvalues --    1.40031   1.41808   1.42985   1.45346   1.46328
 Alpha virt. eigenvalues --    1.49256   1.49715   1.51272   1.51848   1.52405
 Alpha virt. eigenvalues --    1.56552   1.61796   1.62790   1.65575   1.70354
 Alpha virt. eigenvalues --    1.71640   1.76227   1.76672   1.78939   1.79412
 Alpha virt. eigenvalues --    1.79848   1.80284   1.82086   1.82781   1.84342
 Alpha virt. eigenvalues --    1.85112   1.86952   1.88524   1.89726   1.91885
 Alpha virt. eigenvalues --    1.93800   1.94953   1.96410   1.99350   2.00023
 Alpha virt. eigenvalues --    2.01116   2.01673   2.05110   2.07182   2.08175
 Alpha virt. eigenvalues --    2.10275   2.12991   2.14306   2.16024   2.17427
 Alpha virt. eigenvalues --    2.18572   2.20144   2.24470   2.25410   2.25887
 Alpha virt. eigenvalues --    2.28178   2.29202   2.30764   2.31670   2.34691
 Alpha virt. eigenvalues --    2.35170   2.38169   2.39087   2.42459   2.43101
 Alpha virt. eigenvalues --    2.45648   2.50962   2.53959   2.54624   2.56817
 Alpha virt. eigenvalues --    2.60083   2.62329   2.64984   2.66197   2.67816
 Alpha virt. eigenvalues --    2.69260   2.70035   2.71538   2.72051   2.78475
 Alpha virt. eigenvalues --    2.83601   2.85127   2.89368   2.93417   2.97300
 Alpha virt. eigenvalues --    3.02257   3.07581   3.08431   3.17137   3.38091
 Alpha virt. eigenvalues --    3.92547   3.99248   4.00047   4.06620   4.10824
 Alpha virt. eigenvalues --    4.13623   4.14245   4.20367   4.24203   4.24275
 Alpha virt. eigenvalues --    4.27771   4.39234   4.47881   4.50130   4.64811
 Alpha virt. eigenvalues --    4.67195
          Condensed to atoms (all electrons):
               1          2          3          4          5          6
     1  C    4.390990  -0.033686   0.304311  -0.033333   0.557027   0.295649
     2  N   -0.033686   7.209658   0.207358  -0.059670   0.001370  -0.009372
     3  C    0.304311   0.207358   5.231454   0.312243  -0.084956  -0.119082
     4  C   -0.033333  -0.059670   0.312243   5.261635   0.006690   0.004016
     5  O    0.557027   0.001370  -0.084956   0.006690   8.099561  -0.090638
     6  N    0.295649  -0.009372  -0.119082   0.004016  -0.090638   7.060351
     7  C   -0.026318   0.000242   0.006327  -0.000091  -0.008165   0.265134
     8  C    0.000822   0.252765  -0.019547  -0.000400  -0.000042   0.000198
     9  O   -0.000069  -0.096474   0.002818   0.000021   0.000000   0.000006
    10  C    0.000004  -0.135530   0.004462  -0.000728   0.000002  -0.000030
    11  C   -0.003885   0.003455  -0.022301   0.322222  -0.007214  -0.000123
    12  C    0.000075  -0.000015  -0.003128  -0.042545  -0.000030   0.000000
    13  N    0.000000   0.000000  -0.000033   0.006452   0.000000   0.000000
    14  C   -0.000002   0.000000   0.000028   0.000203  -0.000002   0.000000
    15  C    0.000026   0.000003  -0.000073   0.008170   0.000454   0.000001
    16  C    0.002221   0.000191  -0.006747  -0.067850  -0.004361  -0.000030
    17  H   -0.000634   0.278242  -0.035716  -0.001766   0.000073   0.002117
    18  H   -0.026034  -0.036533   0.363753  -0.051816   0.000083  -0.001226
    19  H    0.003988  -0.001487  -0.043262   0.358092   0.000505  -0.000074
    20  H   -0.003318   0.001843  -0.043315   0.353345   0.008055   0.000492
    21  H   -0.027836   0.025382  -0.004298   0.000734   0.003093   0.299511
    22  H    0.000067  -0.000064   0.001103  -0.000017   0.019999  -0.040412
    23  H    0.000478   0.000001   0.000016   0.000008   0.000421  -0.040788
    24  H    0.001618   0.000000  -0.000305  -0.000003   0.000492  -0.040883
    25  H    0.000210   0.000971  -0.001084   0.000158   0.000000  -0.000001
    26  H   -0.000155   0.003935  -0.003383   0.000283   0.000000   0.000056
    27  H   -0.000001   0.004802   0.000257  -0.000028   0.000000   0.000000
    28  H   -0.000005  -0.000049   0.000152  -0.005541   0.000000   0.000000
    29  H    0.000000   0.000000   0.000000   0.000016   0.000000   0.000000
    30  H    0.000002   0.000000  -0.000001  -0.000120  -0.000001   0.000000
    31  H    0.000573  -0.000003  -0.000880  -0.008414   0.021853   0.000216
               7          8          9         10         11         12
     1  C   -0.026318   0.000822  -0.000069   0.000004  -0.003885   0.000075
     2  N    0.000242   0.252765  -0.096474  -0.135530   0.003455  -0.000015
     3  C    0.006327  -0.019547   0.002818   0.004462  -0.022301  -0.003128
     4  C   -0.000091  -0.000400   0.000021  -0.000728   0.322222  -0.042545
     5  O   -0.008165  -0.000042   0.000000   0.000002  -0.007214  -0.000030
     6  N    0.265134   0.000198   0.000006  -0.000030  -0.000123   0.000000
     7  C    4.964906   0.000011   0.000000  -0.000001   0.000001   0.000000
     8  C    0.000011   4.319197   0.623066   0.332668   0.000195   0.000063
     9  O    0.000000   0.623066   8.019009  -0.083866  -0.000003   0.000000
    10  C   -0.000001   0.332668  -0.083866   5.370659  -0.000735  -0.001319
    11  C    0.000001   0.000195  -0.000003  -0.000735   4.780464   0.482385
    12  C    0.000000   0.000063   0.000000  -0.001319   0.482385   4.920106
    13  N    0.000000   0.000001   0.000000  -0.000014  -0.015697   0.449625
    14  C    0.000000   0.000000   0.000000   0.000003  -0.034313  -0.078977
    15  C    0.000000   0.000000   0.000000   0.000003  -0.020492  -0.047114
    16  C    0.000002   0.000000   0.000000  -0.000014   0.542069  -0.041368
    17  H   -0.000140  -0.009943   0.009795   0.008973   0.000050   0.000001
    18  H   -0.000181  -0.010425   0.000036   0.007526   0.002947   0.001941
    19  H    0.000002   0.001995  -0.000163  -0.000278  -0.035230  -0.005750
    20  H   -0.000014  -0.000229   0.000001   0.000003  -0.017185   0.002114
    21  H   -0.028940   0.000360  -0.000144  -0.000023  -0.000020   0.000000
    22  H    0.376491   0.000001   0.000000   0.000000   0.000003   0.000000
    23  H    0.382627  -0.000001   0.000000   0.000000   0.000000   0.000000
    24  H    0.381343   0.000001   0.000000   0.000000   0.000000   0.000000
    25  H    0.000000  -0.016749   0.001246   0.345670   0.001012   0.004557
    26  H    0.000000  -0.019983   0.001443   0.348163  -0.000033   0.000001
    27  H    0.000000  -0.022078   0.004773   0.358038   0.000005   0.000007
    28  H    0.000000   0.000019   0.000000  -0.000254  -0.070400   0.372153
    29  H    0.000000   0.000000   0.000000   0.000000   0.000580   0.005263
    30  H    0.000000   0.000000   0.000000   0.000000   0.004448   0.000514
    31  H   -0.000001   0.000000   0.000000   0.000001  -0.039560   0.005839
              13         14         15         16         17         18
     1  C    0.000000  -0.000002   0.000026   0.002221  -0.000634  -0.026034
     2  N    0.000000   0.000000   0.000003   0.000191   0.278242  -0.036533
     3  C   -0.000033   0.000028  -0.000073  -0.006747  -0.035716   0.363753
     4  C    0.006452   0.000203   0.008170  -0.067850  -0.001766  -0.051816
     5  O    0.000000  -0.000002   0.000454  -0.004361   0.000073   0.000083
     6  N    0.000000   0.000000   0.000001  -0.000030   0.002117  -0.001226
     7  C    0.000000   0.000000   0.000000   0.000002  -0.000140  -0.000181
     8  C    0.000001   0.000000   0.000000   0.000000  -0.009943  -0.010425
     9  O    0.000000   0.000000   0.000000   0.000000   0.009795   0.000036
    10  C   -0.000014   0.000003   0.000003  -0.000014   0.008973   0.007526
    11  C   -0.015697  -0.034313  -0.020492   0.542069   0.000050   0.002947
    12  C    0.449625  -0.078977  -0.047114  -0.041368   0.000001   0.001941
    13  N    6.677373   0.471131  -0.023574  -0.054590   0.000000  -0.000127
    14  C    0.471131   4.787419   0.501433  -0.033359   0.000000  -0.000021
    15  C   -0.023574   0.501433   4.982329   0.495751   0.000000  -0.000136
    16  C   -0.054590  -0.033359   0.495751   5.003792   0.000001   0.002357
    17  H    0.000000   0.000000   0.000000   0.000001   0.413198   0.004833
    18  H   -0.000127  -0.000021  -0.000136   0.002357   0.004833   0.544358
    19  H    0.000177  -0.000012  -0.000135   0.005261   0.000897   0.001890
    20  H   -0.000148   0.000036  -0.000081  -0.004473   0.000983   0.005255
    21  H    0.000000   0.000000   0.000000  -0.000002  -0.000464  -0.000266
    22  H    0.000000   0.000000   0.000000   0.000000  -0.000007  -0.000022
    23  H    0.000000   0.000000   0.000000   0.000000  -0.000025  -0.000007
    24  H    0.000000   0.000000   0.000000   0.000000   0.000008   0.000034
    25  H    0.000009  -0.000019  -0.000024   0.000041  -0.000358  -0.000735
    26  H    0.000000   0.000000   0.000000  -0.000001  -0.000214   0.002878
    27  H    0.000000   0.000000   0.000000   0.000000  -0.000160   0.000058
    28  H   -0.053372   0.005432   0.000215   0.004998   0.000002   0.000062
    29  H   -0.053095   0.377296  -0.063820   0.003311   0.000000   0.000000
    30  H    0.004858  -0.037082   0.350223  -0.041111   0.000000   0.000001
    31  H   -0.000306   0.004148  -0.043176   0.349130   0.000002   0.000419
              19         20         21         22         23         24
     1  C    0.003988  -0.003318  -0.027836   0.000067   0.000478   0.001618
     2  N   -0.001487   0.001843   0.025382  -0.000064   0.000001   0.000000
     3  C   -0.043262  -0.043315  -0.004298   0.001103   0.000016  -0.000305
     4  C    0.358092   0.353345   0.000734  -0.000017   0.000008  -0.000003
     5  O    0.000505   0.008055   0.003093   0.019999   0.000421   0.000492
     6  N   -0.000074   0.000492   0.299511  -0.040412  -0.040788  -0.040883
     7  C    0.000002  -0.000014  -0.028940   0.376491   0.382627   0.381343
     8  C    0.001995  -0.000229   0.000360   0.000001  -0.000001   0.000001
     9  O   -0.000163   0.000001  -0.000144   0.000000   0.000000   0.000000
    10  C   -0.000278   0.000003  -0.000023   0.000000   0.000000   0.000000
    11  C   -0.035230  -0.017185  -0.000020   0.000003   0.000000   0.000000
    12  C   -0.005750   0.002114   0.000000   0.000000   0.000000   0.000000
    13  N    0.000177  -0.000148   0.000000   0.000000   0.000000   0.000000
    14  C   -0.000012   0.000036   0.000000   0.000000   0.000000   0.000000
    15  C   -0.000135  -0.000081   0.000000   0.000000   0.000000   0.000000
    16  C    0.005261  -0.004473  -0.000002   0.000000   0.000000   0.000000
    17  H    0.000897   0.000983  -0.000464  -0.000007  -0.000025   0.000008
    18  H    0.001890   0.005255  -0.000266  -0.000022  -0.000007   0.000034
    19  H    0.577634  -0.028193  -0.000021   0.000000   0.000000   0.000000
    20  H   -0.028193   0.541233  -0.000056  -0.000009   0.000001   0.000000
    21  H   -0.000021  -0.000056   0.386834   0.003434  -0.000124  -0.001228
    22  H    0.000000  -0.000009   0.003434   0.483652  -0.024495  -0.024487
    23  H    0.000000   0.000001  -0.000124  -0.024495   0.557463  -0.038920
    24  H    0.000000   0.000000  -0.001228  -0.024487  -0.038920   0.558859
    25  H    0.000395   0.000030   0.000001   0.000000   0.000000   0.000000
    26  H    0.000035  -0.000004   0.000091   0.000000   0.000000   0.000000
    27  H    0.000013   0.000000  -0.000003   0.000000   0.000000   0.000000
    28  H    0.007727  -0.000006   0.000000   0.000000   0.000000   0.000000
    29  H    0.000000   0.000000   0.000000   0.000000   0.000000   0.000000
    30  H    0.000003  -0.000004   0.000000   0.000000   0.000000   0.000000
    31  H   -0.000001   0.002193  -0.000008  -0.000012   0.000000   0.000001
              25         26         27         28         29         30
     1  C    0.000210  -0.000155  -0.000001  -0.000005   0.000000   0.000002
     2  N    0.000971   0.003935   0.004802  -0.000049   0.000000   0.000000
     3  C   -0.001084  -0.003383   0.000257   0.000152   0.000000  -0.000001
     4  C    0.000158   0.000283  -0.000028  -0.005541   0.000016  -0.000120
     5  O    0.000000   0.000000   0.000000   0.000000   0.000000  -0.000001
     6  N   -0.000001   0.000056   0.000000   0.000000   0.000000   0.000000
     7  C    0.000000   0.000000   0.000000   0.000000   0.000000   0.000000
     8  C   -0.016749  -0.019983  -0.022078   0.000019   0.000000   0.000000
     9  O    0.001246   0.001443   0.004773   0.000000   0.000000   0.000000
    10  C    0.345670   0.348163   0.358038  -0.000254   0.000000   0.000000
    11  C    0.001012  -0.000033   0.000005  -0.070400   0.000580   0.004448
    12  C    0.004557   0.000001   0.000007   0.372153   0.005263   0.000514
    13  N    0.000009   0.000000   0.000000  -0.053372  -0.053095   0.004858
    14  C   -0.000019   0.000000   0.000000   0.005432   0.377296  -0.037082
    15  C   -0.000024   0.000000   0.000000   0.000215  -0.063820   0.350223
    16  C    0.000041  -0.000001   0.000000   0.004998   0.003311  -0.041111
    17  H   -0.000358  -0.000214  -0.000160   0.000002   0.000000   0.000000
    18  H   -0.000735   0.002878   0.000058   0.000062   0.000000   0.000001
    19  H    0.000395   0.000035   0.000013   0.007727   0.000000   0.000003
    20  H    0.000030  -0.000004   0.000000  -0.000006   0.000000  -0.000004
    21  H    0.000001   0.000091  -0.000003   0.000000   0.000000   0.000000
    22  H    0.000000   0.000000   0.000000   0.000000   0.000000   0.000000
    23  H    0.000000   0.000000   0.000000   0.000000   0.000000   0.000000
    24  H    0.000000   0.000000   0.000000   0.000000   0.000000   0.000000
    25  H    0.526057  -0.027975  -0.019768   0.001880   0.000000   0.000000
    26  H   -0.027975   0.543739  -0.020828  -0.000004   0.000000   0.000000
    27  H   -0.019768  -0.020828   0.501558   0.000002   0.000000   0.000000
    28  H    0.001880  -0.000004   0.000002   0.603933  -0.000186   0.000028
    29  H    0.000000   0.000000   0.000000  -0.000186   0.592183  -0.001866
    30  H    0.000000   0.000000   0.000000   0.000028  -0.001866   0.587060
    31  H   -0.000001  -0.000001   0.000000  -0.000163  -0.000148  -0.004966
              31
     1  C    0.000573
     2  N   -0.000003
     3  C   -0.000880
     4  C   -0.008414
     5  O    0.021853
     6  N    0.000216
     7  C   -0.000001
     8  C    0.000000
     9  O    0.000000
    10  C    0.000001
    11  C   -0.039560
    12  C    0.005839
    13  N   -0.000306
    14  C    0.004148
    15  C   -0.043176
    16  C    0.349130
    17  H    0.000002
    18  H    0.000419
    19  H   -0.000001
    20  H    0.002193
    21  H   -0.000008
    22  H   -0.000012
    23  H    0.000000
    24  H    0.000001
    25  H   -0.000001
    26  H   -0.000001
    27  H    0.000000
    28  H   -0.000163
    29  H   -0.000148
    30  H   -0.004966
    31  H    0.525334
 Mulliken charges:
               1
     1  C    0.597214
     2  N   -0.617334
     3  C   -0.046173
     4  C   -0.361966
     5  O   -0.524268
     6  N   -0.585088
     7  C   -0.313233
     8  C    0.568037
     9  O   -0.481495
    10  C   -0.553382
    11  C    0.127356
    12  C   -0.024398
    13  N   -0.408669
    14  C    0.036657
    15  C   -0.139982
    16  C   -0.155221
    17  H    0.330252
    18  H    0.189096
    19  H    0.155990
    20  H    0.181452
    21  H    0.343994
    22  H    0.204774
    23  H    0.163346
    24  H    0.163472
    25  H    0.184476
    26  H    0.171955
    27  H    0.193350
    28  H    0.133375
    29  H    0.140465
    30  H    0.138015
    31  H    0.187932
 Sum of Mulliken charges =   0.00000
 Mulliken charges with hydrogens summed into heavy atoms:
               1
     1  C    0.597214
     2  N   -0.287082
     3  C    0.142923
     4  C   -0.024524
     5  O   -0.524268
     6  N   -0.241093
     7  C    0.218359
     8  C    0.568037
     9  O   -0.481495
    10  C   -0.003601
    11  C    0.127356
    12  C    0.108977
    13  N   -0.408669
    14  C    0.177122
    15  C   -0.001967
    16  C    0.032711
 Electronic spatial extent (au):  <R**2>=           4292.4071
 Charge=              0.0000 electrons
 Dipole moment (field-independent basis, Debye):
    X=             -2.1923    Y=             -2.5795    Z=             -1.6555  Tot=              3.7684
 Quadrupole moment (field-independent basis, Debye-Ang):
   XX=            -95.5548   YY=           -106.2604   ZZ=            -90.6228
   XY=              6.0067   XZ=              1.6360   YZ=              0.8802
 Traceless Quadrupole moment (field-independent basis, Debye-Ang):
   XX=              1.9246   YY=             -8.7811   ZZ=              6.8565
   XY=              6.0067   XZ=              1.6360   YZ=              0.8802
 Octapole moment (field-independent basis, Debye-Ang**2):
  XXX=            -63.7559  YYY=            -35.3820  ZZZ=              3.4847  XYY=             18.2320
  XXY=            -84.1536  XXZ=            -19.1958  XZZ=            -15.2289  YZZ=              3.9048
  YYZ=            -19.9942  XYZ=              8.6822
 Hexadecapole moment (field-independent basis, Debye-Ang**3):
 XXXX=          -3397.8963 YYYY=          -1950.7028 ZZZZ=           -332.1016 XXXY=              1.2387
 XXXZ=            -44.8136 YYYX=            127.9879 YYYZ=            -14.2133 ZZZX=             -3.5452
 ZZZY=              1.7287 XXYY=           -958.4040 XXZZ=           -613.8853 YYZZ=           -356.1582
 XXYZ=             21.1205 YYXZ=             36.8903 ZZXY=             -4.2917
 N-N= 1.085691214468D+03 E-N=-3.900060277491D+03  KE= 7.360456310371D+02
 1\1\GINC-MERCURY\FOpt\RB3LYP\6-31G(d)\C11H15N3O2\ROTATIONS\03-Mar-2021
 \0\\#B3LYP/6-31G(d) em=GD3BJ Opt=ModRedundant\\scan rotamers\\0,1\C,1.
 5222679512,-0.0979531047,1.1016986794\N,1.4310309737,-1.0401737244,-1.
 1760571229\C,0.6385186236,-0.4110694633,-0.1247155362\C,-0.6295098162,
 -1.2169564664,0.2742888376\O,1.0615739971,-0.0827995792,2.2396674102\N
 ,2.8124415302,0.1931134244,0.8033161477\C,3.7877312361,0.566895608,1.8
 104972952\C,1.1608453923,-0.9655187646,-2.5353393752\O,1.6477479348,-1
 .7763394569,-3.3062411947\C,0.2822693201,0.1835911452,-2.9972971469\C,
 -1.8416885122,-0.3432972568,0.4925189724\C,-2.8861544256,-0.3393512428
 ,-0.4399166262\N,-3.9783601114,0.4281121014,-0.3559583043\C,-4.0697513
 295,1.2425885744,0.7014562892\C,-3.0942365186,1.3191923132,1.696986722
 1\C,-1.9615308972,0.5164674423,1.5910351188\H,1.8787235419,-1.91916422
 5,-0.9327817502\H,0.3187615445,0.5625323397,-0.5082698016\H,-0.8413703
 268,-1.9225175285,-0.5355388158\H,-0.4117852406,-1.7987353327,1.174990
 258\H,3.0893017452,0.1121822893,-0.1658838822\H,3.2843902672,0.5483838
 835,2.7778641306\H,4.6260967562,-0.1384983143,1.8263031056\H,4.1763606
 978,1.5747636056,1.6259324409\H,-0.7311580913,0.1038347907,-2.58825108
 27\H,0.6887890674,1.1520378172,-2.684319201\H,0.2325390646,0.149719066
 6,-4.0856826331\H,-2.8379737184,-1.0033501104,-1.3041524005\H,-4.96430
 21281,1.8607319139,0.7542241549\H,-3.2216836716,1.9954991361,2.5371141
 01\H,-1.1695848566,0.5460791185,2.3325112102\\Version=ES64L-G09RevD.01
 \State=1-A\HF=-742.9899691\RMSD=5.589e-09\RMSF=2.935e-06\Dipole=1.1256
 155,0.7383696,0.6212262\Quadrupole=3.2530354,3.6567234,-6.9097588,2.22
 48824,1.9145002,-3.565672\PG=C01 [X(C11H15N3O2)]\\@


 THERE IS AN OLD, OLD RECIPE IN MAINE FOR STEWING COOT. PLACE THE
 BIRD IN A KETTLE OF WATER WITH A RED BUILDING BRICK FREE OF MORTAR AND
 BLEMISHES. PARBOIL THE COOT AND BRICK TOGETHER FOR THREE HOURS.
 POUR OFF THE WATER, REFILL THE KETTLE, AND AGAIN PARBOIL FOR THREE HOURS.
 ONCE AGAIN POUR OFF THE WATER, FOR THE LAST TIME ADD FRESH WATER,
 AND LET THE COOT AND BRICK SIMMER TOGETHER OVERNIGHT. IN THE MORNING,
 THROW AWAY THE COOT AND EAT THE BRICK.
 Job cpu time:       0 days  1 hours 48 minutes 48.9 seconds.
 File lengths (MBytes):  RWF=     36 Int=      0 D2E=      0 Chk=      6 Scr=      1
 Normal termination of Gaussian 09 at Wed Mar  3 18:10:43 2021.
