 Entering Gaussian System, Link 0=g09
 Initial command:
 /home/rotations/zhangf/install/g09/l1.exe "/home/rotations/zhangf/install/g09/scratch/Gau-1755.inp" -scrdir="/home/rotations/zhangf/install/g09/scratch/"
 Default is to use a total of   4 processors:
                                4 via shared-memory
                                1 via Linda
 Entering Link 1 = /home/rotations/zhangf/install/g09/l1.exe PID=      1756.
  
 Copyright (c) 1988,1990,1992,1993,1995,1998,2003,2009,2013,
            Gaussian, Inc.  All Rights Reserved.
  
 This is part of the Gaussian(R) 09 program.  It is based on
 the Gaussian(R) 03 system (copyright 2003, Gaussian, Inc.),
 the Gaussian(R) 98 system (copyright 1998, Gaussian, Inc.),
 the Gaussian(R) 94 system (copyright 1995, Gaussian, Inc.),
 the Gaussian 92(TM) system (copyright 1992, Gaussian, Inc.),
 the Gaussian 90(TM) system (copyright 1990, Gaussian, Inc.),
 the Gaussian 88(TM) system (copyright 1988, Gaussian, Inc.),
 the Gaussian 86(TM) system (copyright 1986, Carnegie Mellon
 University), and the Gaussian 82(TM) system (copyright 1983,
 Carnegie Mellon University). Gaussian is a federally registered
 trademark of Gaussian, Inc.
  
 This software contains proprietary and confidential information,
 including trade secrets, belonging to Gaussian, Inc.
  
 This software is provided under written license and may be
 used, copied, transmitted, or stored only in accord with that
 written license.
  
 The following legend is applicable only to US Government
 contracts under FAR:
  
                    RESTRICTED RIGHTS LEGEND
  
 Use, reproduction and disclosure by the US Government is
 subject to restrictions as set forth in subparagraphs (a)
 and (c) of the Commercial Computer Software - Restricted
 Rights clause in FAR 52.227-19.
  
 Gaussian, Inc.
 340 Quinnipiac St., Bldg. 40, Wallingford CT 06492
  
  
 ---------------------------------------------------------------
 Warning -- This program may not be used in any manner that
 competes with the business of Gaussian, Inc. or will provide
 assistance to any competitor of Gaussian, Inc.  The licensee
 of this program is prohibited from giving any competitor of
 Gaussian, Inc. access to this program.  By using this program,
 the user acknowledges that Gaussian, Inc. is engaged in the
 business of creating and licensing software in the field of
 computational chemistry and represents and warrants to the
 licensee that it is not a competitor of Gaussian, Inc. and that
 it will not use this program in any manner prohibited above.
 ---------------------------------------------------------------
  

 Cite this work as:
 Gaussian 09, Revision D.01,
 M. J. Frisch, G. W. Trucks, H. B. Schlegel, G. E. Scuseria, 
 M. A. Robb, J. R. Cheeseman, G. Scalmani, V. Barone, B. Mennucci, 
 G. A. Petersson, H. Nakatsuji, M. Caricato, X. Li, H. P. Hratchian, 
 A. F. Izmaylov, J. Bloino, G. Zheng, J. L. Sonnenberg, M. Hada, 
 M. Ehara, K. Toyota, R. Fukuda, J. Hasegawa, M. Ishida, T. Nakajima, 
 Y. Honda, O. Kitao, H. Nakai, T. Vreven, J. A. Montgomery, Jr., 
 J. E. Peralta, F. Ogliaro, M. Bearpark, J. J. Heyd, E. Brothers, 
 K. N. Kudin, V. N. Staroverov, T. Keith, R. Kobayashi, J. Normand, 
 K. Raghavachari, A. Rendell, J. C. Burant, S. S. Iyengar, J. Tomasi, 
 M. Cossi, N. Rega, J. M. Millam, M. Klene, J. E. Knox, J. B. Cross, 
 V. Bakken, C. Adamo, J. Jaramillo, R. Gomperts, R. E. Stratmann, 
 O. Yazyev, A. J. Austin, R. Cammi, C. Pomelli, J. W. Ochterski, 
 R. L. Martin, K. Morokuma, V. G. Zakrzewski, G. A. Voth, 
 P. Salvador, J. J. Dannenberg, S. Dapprich, A. D. Daniels, 
 O. Farkas, J. B. Foresman, J. V. Ortiz, J. Cioslowski, 
 and D. J. Fox, Gaussian, Inc., Wallingford CT, 2013.
 
 ******************************************
 Gaussian 09:  ES64L-G09RevD.01 24-Apr-2013
                 3-Mar-2021 
 ******************************************
 %Chk=/home/rotations/zhangf/gen_ncaa_params/gaussian_output/3-methoxy-L-phenylal
 anine.chk
 -----------------------------------------
 #B3LYP/6-31G(d) em=GD3BJ Opt=ModRedundant
 -----------------------------------------
 1/14=-1,18=120,19=15,26=3,38=1/1,3;
 2/9=110,12=2,17=6,18=5,40=1/2;
 3/5=1,6=6,7=1,11=2,16=1,25=1,30=1,71=1,74=-5,124=41/1,2,3;
 4//1;
 5/5=2,38=5/2;
 6/7=2,8=2,9=2,10=2,28=1/1;
 7//1,2,3,16;
 1/14=-1,18=20,19=15,26=3/3(2);
 2/9=110/2;
 99//99;
 2/9=110/2;
 3/5=1,6=6,7=1,11=2,16=1,25=1,30=1,71=1,74=-5,124=41/1,2,3;
 4/5=5,16=3,69=1/1;
 5/5=2,38=5/2;
 7//1,2,3,16;
 1/14=-1,18=20,19=15,26=3/3(-5);
 2/9=110/2;
 6/7=2,8=2,9=2,10=2,19=2,28=1/1;
 99/9=1/99;
 -------------
 scan rotamers
 -------------
 Symbolic Z-matrix:
 Charge =  0 Multiplicity = 1
 C                     1.8482    1.0414   -1.6519 
 N                     1.8184    1.6424    0.6877 
 C                     1.149     0.8533   -0.328 
 C                    -0.2998    1.3066   -0.451 
 O                     1.4448    0.467    -2.6351 
 N                     2.9398    1.8631   -1.7389 
 C                     3.6117    2.0438   -3.0111 
 C                     1.3587    1.6304    1.9772 
 O                     1.9164    2.2878    2.8234 
 C                     0.1552    0.7961    2.3414 
 C                    -1.2103    0.158    -0.1463 
 C                    -0.6756   -1.0866    0.1862 
 C                    -1.524    -2.1568    0.47 
 C                    -2.907    -1.9823    0.4214 
 C                    -3.4417   -0.7377    0.089 
 C                    -2.5933    0.3325   -0.1949 
 O                    -1.0046   -3.3659    0.7929 
 C                    -2.0243   -4.2961    1.0392 
 H                     2.6255    2.2019    0.4435 
 H                     1.1782   -0.2217   -0.0415 
 H                    -0.4919    2.1329    0.2695 
 H                    -0.4894    1.6653   -1.4874 
 H                     3.2777    2.3443   -0.9153 
 H                     3.0985    1.4385   -3.7915 
 H                     3.5811    3.1191   -3.2967 
 H                     4.6705    1.7127   -2.9216 
 H                    -0.2173    0.2664    1.4362 
 H                     0.4424    0.0498    3.1155 
 H                    -0.6467    1.4565    2.7409 
 H                     0.4151   -1.2241    0.2246 
 H                    -3.576    -2.8263    0.6453 
 H                    -4.5324   -0.6001    0.0508 
 H                    -3.0149    1.3141   -0.4571 
 H                    -1.5745   -5.2796    1.3019 
 H                    -2.6548   -3.9395    1.8842 
 H                    -2.6528   -4.4074    0.1273 
 
 The following ModRedundant input section has been read:
 

 GradGradGradGradGradGradGradGradGradGradGradGradGradGradGradGradGradGrad
 Berny optimization.
 Initialization pass.
                           ----------------------------
                           !    Initial Parameters    !
                           ! (Angstroms and Degrees)  !
 --------------------------                            --------------------------
 ! Name  Definition              Value          Derivative Info.                !
 --------------------------------------------------------------------------------
 ! R1    R(1,3)                  1.509          estimate D2E/DX2                !
 ! R2    R(1,5)                  1.208          estimate D2E/DX2                !
 ! R3    R(1,6)                  1.3691         estimate D2E/DX2                !
 ! R4    R(2,3)                  1.45           estimate D2E/DX2                !
 ! R5    R(2,8)                  1.369          estimate D2E/DX2                !
 ! R6    R(2,19)                 1.012          estimate D2E/DX2                !
 ! R7    R(3,4)                  1.523          estimate D2E/DX2                !
 ! R8    R(3,20)                 1.1129         estimate D2E/DX2                !
 ! R9    R(4,11)                 1.497          estimate D2E/DX2                !
 ! R10   R(4,21)                 1.113          estimate D2E/DX2                !
 ! R11   R(4,22)                 1.113          estimate D2E/DX2                !
 ! R12   R(6,7)                  1.45           estimate D2E/DX2                !
 ! R13   R(6,23)                 1.012          estimate D2E/DX2                !
 ! R14   R(7,24)                 1.113          estimate D2E/DX2                !
 ! R15   R(7,25)                 1.113          estimate D2E/DX2                !
 ! R16   R(7,26)                 1.113          estimate D2E/DX2                !
 ! R17   R(8,9)                  1.208          estimate D2E/DX2                !
 ! R18   R(8,10)                 1.509          estimate D2E/DX2                !
 ! R19   R(10,27)                1.113          estimate D2E/DX2                !
 ! R20   R(10,28)                1.113          estimate D2E/DX2                !
 ! R21   R(10,29)                1.113          estimate D2E/DX2                !
 ! R22   R(11,12)                1.3948         estimate D2E/DX2                !
 ! R23   R(11,16)                1.3948         estimate D2E/DX2                !
 ! R24   R(12,13)                1.3949         estimate D2E/DX2                !
 ! R25   R(12,30)                1.1            estimate D2E/DX2                !
 ! R26   R(13,14)                1.3948         estimate D2E/DX2                !
 ! R27   R(13,17)                1.355          estimate D2E/DX2                !
 ! R28   R(14,15)                1.3948         estimate D2E/DX2                !
 ! R29   R(14,31)                1.1            estimate D2E/DX2                !
 ! R30   R(15,16)                1.3949         estimate D2E/DX2                !
 ! R31   R(15,32)                1.1            estimate D2E/DX2                !
 ! R32   R(16,33)                1.1            estimate D2E/DX2                !
 ! R33   R(17,18)                1.402          estimate D2E/DX2                !
 ! R34   R(18,34)                1.1129         estimate D2E/DX2                !
 ! R35   R(18,35)                1.113          estimate D2E/DX2                !
 ! R36   R(18,36)                1.1131         estimate D2E/DX2                !
 ! A1    A(3,1,5)              120.0042         estimate D2E/DX2                !
 ! A2    A(3,1,6)              120.0016         estimate D2E/DX2                !
 ! A3    A(5,1,6)              119.9942         estimate D2E/DX2                !
 ! A4    A(3,2,8)              120.0005         estimate D2E/DX2                !
 ! A5    A(3,2,19)             120.0034         estimate D2E/DX2                !
 ! A6    A(8,2,19)             119.9961         estimate D2E/DX2                !
 ! A7    A(1,3,2)              109.4404         estimate D2E/DX2                !
 ! A8    A(1,3,4)              109.4402         estimate D2E/DX2                !
 ! A9    A(1,3,20)             109.5186         estimate D2E/DX2                !
 ! A10   A(2,3,4)              109.4971         estimate D2E/DX2                !
 ! A11   A(2,3,20)             109.4653         estimate D2E/DX2                !
 ! A12   A(4,3,20)             109.4656         estimate D2E/DX2                !
 ! A13   A(3,4,11)             109.4973         estimate D2E/DX2                !
 ! A14   A(3,4,21)             109.4427         estimate D2E/DX2                !
 ! A15   A(3,4,22)             109.4615         estimate D2E/DX2                !
 ! A16   A(11,4,21)            109.4434         estimate D2E/DX2                !
 ! A17   A(11,4,22)            109.4627         estimate D2E/DX2                !
 ! A18   A(21,4,22)            109.5197         estimate D2E/DX2                !
 ! A19   A(1,6,7)              120.0004         estimate D2E/DX2                !
 ! A20   A(1,6,23)             119.9945         estimate D2E/DX2                !
 ! A21   A(7,6,23)             120.0052         estimate D2E/DX2                !
 ! A22   A(6,7,24)             109.4962         estimate D2E/DX2                !
 ! A23   A(6,7,25)             109.4382         estimate D2E/DX2                !
 ! A24   A(6,7,26)             109.4626         estimate D2E/DX2                !
 ! A25   A(24,7,25)            109.4401         estimate D2E/DX2                !
 ! A26   A(24,7,26)            109.466          estimate D2E/DX2                !
 ! A27   A(25,7,26)            109.5243         estimate D2E/DX2                !
 ! A28   A(2,8,9)              120.0004         estimate D2E/DX2                !
 ! A29   A(2,8,10)             119.9983         estimate D2E/DX2                !
 ! A30   A(9,8,10)             120.0013         estimate D2E/DX2                !
 ! A31   A(8,10,27)            109.4975         estimate D2E/DX2                !
 ! A32   A(8,10,28)            109.4386         estimate D2E/DX2                !
 ! A33   A(8,10,29)            109.4629         estimate D2E/DX2                !
 ! A34   A(27,10,28)           109.4458         estimate D2E/DX2                !
 ! A35   A(27,10,29)           109.4623         estimate D2E/DX2                !
 ! A36   A(28,10,29)           109.5203         estimate D2E/DX2                !
 ! A37   A(4,11,12)            119.9991         estimate D2E/DX2                !
 ! A38   A(4,11,16)            119.998          estimate D2E/DX2                !
 ! A39   A(12,11,16)           120.0029         estimate D2E/DX2                !
 ! A40   A(11,12,13)           119.9969         estimate D2E/DX2                !
 ! A41   A(11,12,30)           119.9979         estimate D2E/DX2                !
 ! A42   A(13,12,30)           120.0052         estimate D2E/DX2                !
 ! A43   A(12,13,14)           120.0002         estimate D2E/DX2                !
 ! A44   A(12,13,17)           119.9983         estimate D2E/DX2                !
 ! A45   A(14,13,17)           120.0015         estimate D2E/DX2                !
 ! A46   A(13,14,15)           120.0033         estimate D2E/DX2                !
 ! A47   A(13,14,31)           119.9962         estimate D2E/DX2                !
 ! A48   A(15,14,31)           120.0005         estimate D2E/DX2                !
 ! A49   A(14,15,16)           119.9972         estimate D2E/DX2                !
 ! A50   A(14,15,32)           120.0006         estimate D2E/DX2                !
 ! A51   A(16,15,32)           120.0022         estimate D2E/DX2                !
 ! A52   A(11,16,15)           119.9996         estimate D2E/DX2                !
 ! A53   A(11,16,33)           119.9977         estimate D2E/DX2                !
 ! A54   A(15,16,33)           120.0027         estimate D2E/DX2                !
 ! A55   A(13,17,18)           110.7998         estimate D2E/DX2                !
 ! A56   A(17,18,34)           109.5012         estimate D2E/DX2                !
 ! A57   A(17,18,35)           109.4396         estimate D2E/DX2                !
 ! A58   A(17,18,36)           109.4562         estimate D2E/DX2                !
 ! A59   A(34,18,35)           109.4441         estimate D2E/DX2                !
 ! A60   A(34,18,36)           109.4646         estimate D2E/DX2                !
 ! A61   A(35,18,36)           109.5217         estimate D2E/DX2                !
 ! D1    D(5,1,3,2)           -179.9947         estimate D2E/DX2                !
 ! D2    D(5,1,3,4)            -60.0008         estimate D2E/DX2                !
 ! D3    D(5,1,3,20)            60.0024         estimate D2E/DX2                !
 ! D4    D(6,1,3,2)              0.0031         estimate D2E/DX2                !
 ! D5    D(6,1,3,4)            119.9969         estimate D2E/DX2                !
 ! D6    D(6,1,3,20)          -119.9999         estimate D2E/DX2                !
 ! D7    D(3,1,6,7)            179.998          estimate D2E/DX2                !
 ! D8    D(3,1,6,23)            -0.0005         estimate D2E/DX2                !
 ! D9    D(5,1,6,7)             -0.0043         estimate D2E/DX2                !
 ! D10   D(5,1,6,23)           179.9973         estimate D2E/DX2                !
 ! D11   D(8,2,3,1)           -179.9956         estimate D2E/DX2                !
 ! D12   D(8,2,3,4)             60.0453         estimate D2E/DX2                !
 ! D13   D(8,2,3,20)           -59.96           estimate D2E/DX2                !
 ! D14   D(19,2,3,1)            -0.0063         estimate D2E/DX2                !
 ! D15   D(19,2,3,4)          -119.9653         estimate D2E/DX2                !
 ! D16   D(19,2,3,20)          120.0293         estimate D2E/DX2                !
 ! D17   D(3,2,8,9)            179.9991         estimate D2E/DX2                !
 ! D18   D(3,2,8,10)            -0.0098         estimate D2E/DX2                !
 ! D19   D(19,2,8,9)             0.0097         estimate D2E/DX2                !
 ! D20   D(19,2,8,10)         -179.9992         estimate D2E/DX2                !
 ! D21   D(1,3,4,11)           120.0365         estimate D2E/DX2                !
 ! D22   D(1,3,4,21)          -119.9992         estimate D2E/DX2                !
 ! D23   D(1,3,4,22)             0.0368         estimate D2E/DX2                !
 ! D24   D(2,3,4,11)          -120.0044         estimate D2E/DX2                !
 ! D25   D(2,3,4,21)            -0.04           estimate D2E/DX2                !
 ! D26   D(2,3,4,22)           119.996          estimate D2E/DX2                !
 ! D27   D(20,3,4,11)            0.0008         estimate D2E/DX2                !
 ! D28   D(20,3,4,21)          119.9652         estimate D2E/DX2                !
 ! D29   D(20,3,4,22)         -119.9988         estimate D2E/DX2                !
 ! D30   D(3,4,11,12)            0.0009         estimate D2E/DX2                !
 ! D31   D(3,4,11,16)          179.9998         estimate D2E/DX2                !
 ! D32   D(21,4,11,12)        -119.963          estimate D2E/DX2                !
 ! D33   D(21,4,11,16)          60.0359         estimate D2E/DX2                !
 ! D34   D(22,4,11,12)         119.9999         estimate D2E/DX2                !
 ! D35   D(22,4,11,16)         -60.0013         estimate D2E/DX2                !
 ! D36   D(1,6,7,24)             0.0038         estimate D2E/DX2                !
 ! D37   D(1,6,7,25)           119.9608         estimate D2E/DX2                !
 ! D38   D(1,6,7,26)          -119.9997         estimate D2E/DX2                !
 ! D39   D(23,6,7,24)         -179.9977         estimate D2E/DX2                !
 ! D40   D(23,6,7,25)          -60.0407         estimate D2E/DX2                !
 ! D41   D(23,6,7,26)           59.9987         estimate D2E/DX2                !
 ! D42   D(2,8,10,27)            0.0046         estimate D2E/DX2                !
 ! D43   D(2,8,10,28)          119.9695         estimate D2E/DX2                !
 ! D44   D(2,8,10,29)         -119.9954         estimate D2E/DX2                !
 ! D45   D(9,8,10,27)          179.9957         estimate D2E/DX2                !
 ! D46   D(9,8,10,28)          -60.0394         estimate D2E/DX2                !
 ! D47   D(9,8,10,29)           59.9957         estimate D2E/DX2                !
 ! D48   D(4,11,12,13)        -179.9953         estimate D2E/DX2                !
 ! D49   D(4,11,12,30)           0.0049         estimate D2E/DX2                !
 ! D50   D(16,11,12,13)          0.0058         estimate D2E/DX2                !
 ! D51   D(16,11,12,30)       -179.994          estimate D2E/DX2                !
 ! D52   D(4,11,16,15)         179.9999         estimate D2E/DX2                !
 ! D53   D(4,11,16,33)          -0.0011         estimate D2E/DX2                !
 ! D54   D(12,11,16,15)         -0.0012         estimate D2E/DX2                !
 ! D55   D(12,11,16,33)        179.9978         estimate D2E/DX2                !
 ! D56   D(11,12,13,14)         -0.0058         estimate D2E/DX2                !
 ! D57   D(11,12,13,17)        179.9945         estimate D2E/DX2                !
 ! D58   D(30,12,13,14)        179.994          estimate D2E/DX2                !
 ! D59   D(30,12,13,17)         -0.0057         estimate D2E/DX2                !
 ! D60   D(12,13,14,15)          0.0012         estimate D2E/DX2                !
 ! D61   D(12,13,14,31)       -179.9951         estimate D2E/DX2                !
 ! D62   D(17,13,14,15)       -179.9991         estimate D2E/DX2                !
 ! D63   D(17,13,14,31)          0.0046         estimate D2E/DX2                !
 ! D64   D(12,13,17,18)        179.9975         estimate D2E/DX2                !
 ! D65   D(14,13,17,18)         -0.0021         estimate D2E/DX2                !
 ! D66   D(13,14,15,16)          0.0034         estimate D2E/DX2                !
 ! D67   D(13,14,15,32)       -179.9928         estimate D2E/DX2                !
 ! D68   D(31,14,15,16)        179.9997         estimate D2E/DX2                !
 ! D69   D(31,14,15,32)          0.0035         estimate D2E/DX2                !
 ! D70   D(14,15,16,11)         -0.0034         estimate D2E/DX2                !
 ! D71   D(14,15,16,33)        179.9976         estimate D2E/DX2                !
 ! D72   D(32,15,16,11)        179.9928         estimate D2E/DX2                !
 ! D73   D(32,15,16,33)         -0.0061         estimate D2E/DX2                !
 ! D74   D(13,17,18,34)       -179.9996         estimate D2E/DX2                !
 ! D75   D(13,17,18,35)        -60.0339         estimate D2E/DX2                !
 ! D76   D(13,17,18,36)         59.9994         estimate D2E/DX2                !
 --------------------------------------------------------------------------------
 Trust Radius=3.00D-01 FncErr=1.00D-07 GrdErr=1.00D-06
 Number of steps in this run=    183 maximum allowed number of steps=    216.
 GradGradGradGradGradGradGradGradGradGradGradGradGradGradGradGradGradGrad

                          Input orientation:                          
 ---------------------------------------------------------------------
 Center     Atomic      Atomic             Coordinates (Angstroms)
 Number     Number       Type             X           Y           Z
 ---------------------------------------------------------------------
      1          6           0        1.848200    1.041400   -1.651900
      2          7           0        1.818400    1.642400    0.687700
      3          6           0        1.149000    0.853300   -0.328000
      4          6           0       -0.299800    1.306600   -0.451000
      5          8           0        1.444800    0.467000   -2.635100
      6          7           0        2.939800    1.863100   -1.738900
      7          6           0        3.611700    2.043800   -3.011100
      8          6           0        1.358700    1.630400    1.977200
      9          8           0        1.916400    2.287800    2.823400
     10          6           0        0.155200    0.796100    2.341400
     11          6           0       -1.210300    0.158000   -0.146300
     12          6           0       -0.675600   -1.086600    0.186200
     13          6           0       -1.524000   -2.156800    0.470000
     14          6           0       -2.907000   -1.982300    0.421400
     15          6           0       -3.441700   -0.737700    0.089000
     16          6           0       -2.593300    0.332500   -0.194900
     17          8           0       -1.004600   -3.365900    0.792900
     18          6           0       -2.024300   -4.296100    1.039200
     19          1           0        2.625500    2.201900    0.443500
     20          1           0        1.178200   -0.221700   -0.041500
     21          1           0       -0.491900    2.132900    0.269500
     22          1           0       -0.489400    1.665300   -1.487400
     23          1           0        3.277700    2.344300   -0.915300
     24          1           0        3.098500    1.438500   -3.791500
     25          1           0        3.581100    3.119100   -3.296700
     26          1           0        4.670500    1.712700   -2.921600
     27          1           0       -0.217300    0.266400    1.436200
     28          1           0        0.442400    0.049800    3.115500
     29          1           0       -0.646700    1.456500    2.740900
     30          1           0        0.415100   -1.224100    0.224600
     31          1           0       -3.576000   -2.826300    0.645300
     32          1           0       -4.532400   -0.600100    0.050800
     33          1           0       -3.014900    1.314100   -0.457100
     34          1           0       -1.574500   -5.279600    1.301900
     35          1           0       -2.654800   -3.939500    1.884200
     36          1           0       -2.652800   -4.407400    0.127300
 ---------------------------------------------------------------------
                    Distance matrix (angstroms):
                    1          2          3          4          5
     1  C    0.000000
     2  N    2.415744   0.000000
     3  C    1.508964   1.449973   0.000000
     4  C    2.475156   2.428203   1.523034   0.000000
     5  O    1.208035   3.544311   2.357846   2.918707   0.000000
     6  N    1.369069   2.682281   2.493451   3.530352   2.233225
     7  C    2.441754   4.130154   3.831606   4.732590   2.706128
     8  C    3.709029   1.369043   2.441681   2.958314   4.757544
     9  O    4.646125   2.233240   3.546550   4.073818   5.773469
    10  C    4.344291   2.493428   2.848966   2.874914   5.151401
    11  C    3.521598   3.474482   2.466324   1.497042   3.652282
    12  C    3.778434   3.730815   2.712338   2.504926   3.856099
    13  C    5.109078   5.064874   4.103954   3.787089   5.033860
    14  C    6.004437   5.961440   5.005334   4.286658   5.854863
    15  C    5.846278   5.804478   4.876443   3.787123   5.722753
    16  C    4.727823   4.685928   3.780709   2.504915   4.720055
    17  O    5.791356   5.750084   4.867860   4.886337   5.695776
    18  C    7.122302   7.082067   6.201241   6.048541   6.944225
    19  H    2.518265   1.011971   2.143359   3.187330   3.725816
    20  H    2.153534   2.101537   1.112906   2.165150   2.696691
    21  H    3.218574   2.398534   2.164933   1.113011   3.868169
    22  H    2.425012   3.171360   2.165157   1.112986   2.548385
    23  H    2.069686   2.278559   2.664464   3.753785   3.137115
    24  H    2.509746   4.662989   4.017318   4.767052   2.239597
    25  H    3.166251   4.600348   4.456696   5.142426   3.469168
    26  H    3.166727   4.600702   4.457162   5.565309   3.469725
    27  H    3.795165   2.568599   2.307299   2.156466   4.402079
    28  H    5.068298   3.213093   3.605910   3.853613   5.852201
    29  H    5.068878   3.213551   3.606458   3.214193   5.852765
    30  H    3.272234   3.224986   2.271468   2.715135   3.478216
    31  H    7.046856   7.005043   6.067322   5.386671   6.842169
    32  H    6.804834   6.765139   5.876578   4.669284   6.639253
    33  H    5.015142   4.977865   4.191308   2.715117   5.034897
    34  H    7.771412   7.733246   6.905540   6.933653   7.592072
    35  H    7.588832   7.252499   6.506432   6.206509   7.526489
    36  H    7.287934   7.543591   6.506608   6.206516   6.941250
                    6          7          8          9         10
     6  N    0.000000
     7  C    1.450033   0.000000
     8  C    4.045173   5.489084   0.000000
     9  O    4.694923   6.080705   1.207998   0.000000
    10  C    5.053844   6.492565   1.509010   2.357821   0.000000
    11  C    4.760995   5.917348   3.643758   4.809513   2.908679
    12  C    5.047560   6.197021   3.837727   5.005983   2.979878
    13  C    6.400339   7.492564   4.992444   6.093383   3.878333
    14  C    7.323870   8.395534   5.802440   6.875212   4.558835
    15  C    7.129440   8.191326   5.676005   6.733486   4.512598
    16  C    5.944903   7.025778   4.692640   5.768078   3.768553
    17  O    7.022161   8.065079   5.652501   6.679783   4.589688
    18  C    8.384263   9.400200   6.888246   7.877831   5.690030
    19  H    2.230794   3.596088   2.069693   2.484779   3.417701
    20  H    3.214155   4.457907   2.745543   3.879456   2.785796
    21  H    3.985352   5.254504   2.567775   3.513731   2.549224
    22  H    3.444095   4.391349   3.926849   4.975779   3.978785
    23  H    1.011952   2.143416   3.543836   3.979222   4.770013
    24  H    2.102056   1.113008   6.028402   6.773151   6.832873
    25  H    2.101319   1.113002   5.913485   6.396711   6.994376
    26  H    2.101600   1.112967   5.913800   6.396939   6.994802
    27  H    4.753734   6.131792   2.153359   3.250086   1.112980
    28  H    5.752414   7.180232   2.152587   2.695671   1.112959
    29  H    5.752992   7.180835   2.152930   2.695802   1.113001
    30  H    4.445250   5.600641   3.479965   4.619643   2.937618
    31  H    8.374397   9.420731   6.781401   7.814384   5.469953
    32  H    8.068714   9.093503   6.587200   7.590408   5.400909
    33  H    6.115788   7.139132   5.015400   6.002291   4.260218
    34  H    8.980174   9.956447   7.537094   8.471534   6.402074
    35  H    8.837226   9.951526   6.865903   7.781853   5.525490
    36  H    8.606919   9.524258   7.481263   8.542379   6.313756
                   11         12         13         14         15
    11  C    0.000000
    12  C    1.394808   0.000000
    13  C    2.415892   1.394867   0.000000
    14  C    2.789616   2.415935   1.394812   0.000000
    15  C    2.415945   2.789711   2.415901   1.394784   0.000000
    16  C    1.394812   2.415917   2.789643   2.415892   1.394887
    17  O    3.652709   2.381498   1.354977   2.381488   3.652720
    18  C    4.680493   3.584340   2.269558   2.552353   3.946405
    19  H    4.386200   4.666658   6.018083   6.936611   6.751136
    20  H    2.420762   2.058270   3.362756   4.472454   4.650458
    21  H    2.142246   3.225812   4.416668   4.773956   4.119981
    22  H    2.142475   3.226230   4.417042   4.774232   4.120136
    23  H    5.051080   5.349108   6.725718   7.665295   7.460407
    24  H    5.787307   6.036726   7.242518   8.094222   7.910015
    25  H    6.453731   6.923727   8.251375   9.052292   8.698137
    26  H    6.686044   6.787878   8.052814   9.069023   8.993106
    27  H    1.871391   1.898196   2.917688   3.649789   3.635921
    28  H    3.658205   3.334985   3.966671   4.754586   4.986591
    29  H    3.215536   3.604814   4.356900   4.723810   4.433860
    30  H    2.165570   1.100003   2.165701   3.413202   3.889714
    31  H    3.889629   3.413158   2.165563   1.100013   2.165584
    32  H    3.413197   3.889720   3.413138   2.165582   1.100009
    33  H    2.165582   3.413139   3.889659   3.413159   2.165702
    34  H    5.638920   4.431033   3.232103   3.663745   5.058302
    35  H    4.795729   3.865162   2.541002   2.456424   3.754128
    36  H    4.795679   3.865295   2.541030   2.456058   3.753735
                   16         17         18         19         20
    16  C    0.000000
    17  O    4.144621   0.000000
    18  C    4.823972   1.402043   0.000000
    19  H    5.580151   6.655832   8.012459   0.000000
    20  H    3.815086   3.917503   5.293832   2.864217   0.000000
    21  H    2.805885   5.547397   6.653776   3.123015   2.903463
    22  H    2.805941   5.547808   6.654165   3.703906   2.903840
    23  H    6.247796   7.339102   8.719300   1.513929   3.428671
    24  H    6.823148   7.806050   9.080990   4.329172   4.528390
    25  H    7.450471   8.933571  10.256984   3.967811   5.247018
    26  H    7.880523   8.473278   9.829240   3.968027   4.922706
    27  H    2.882747   3.771907   4.923339   3.579543   2.090277
    28  H    4.500460   4.376675   5.411329   4.066576   3.252962
    29  H    3.697506   5.213285   6.155158   4.067058   3.726710
    30  H    3.413130   2.631695   4.006424   4.083046   1.287609
    31  H    3.413159   2.631549   2.173302   7.986371   5.464252
    32  H    2.165692   4.543758   4.574704   7.696814   5.723867
    33  H    1.100015   5.244636   5.890208   5.780431   4.484807
    34  H    5.896951   2.060610   1.112926   8.622627   5.913073
    35  H    4.751465   2.059882   1.112977   8.226420   5.676464
    36  H    4.751211   2.060172   1.113086   8.464235   5.676719
                   21         22         23         24         25
    21  H    0.000000
    22  H    1.818063   0.000000
    23  H    3.957060   3.870321   0.000000
    24  H    5.464877   4.270052   3.020780   0.000000
    25  H    5.502700   4.685731   2.522585   1.817181   0.000000
    26  H    6.083589   5.355721   2.522707   1.817442   1.818091
    27  H    2.218201   3.252445   4.697046   6.300571   6.705675
    28  H    3.648553   4.966365   5.436084   7.529276   7.770994
    29  H    2.566963   4.236374   5.436626   7.529880   7.555868
    30  H    3.477659   3.478174   4.714587   5.515354   6.425457
    31  H    5.852056   5.852348   8.726040   9.078693  10.105010
    32  H    4.882905   4.883026   8.402411   8.783496   9.532423
    33  H    2.750256   2.750093   6.392814   6.964722   7.404632
    34  H    7.561946   7.562359   9.305035   9.639114  10.874994
    35  H    6.645257   6.889879   9.083936   9.707570  10.749512
    36  H    6.889502   6.645693   9.046729   9.088949  10.355360
                   26         27         28         29         30
    26  H    0.000000
    27  H    6.706176   0.000000
    28  H    7.555703   1.817187   0.000000
    29  H    7.771883   1.817406   1.818040   0.000000
    30  H    6.052421   2.022250   3.159251   3.826853   0.000000
    31  H   10.066283   4.633701   5.524616   5.595955   4.321217
    32  H    9.943720   4.614135   5.879064   5.154115   4.989723
    33  H    8.080719   3.536782   5.129800   3.981941   4.321120
    34  H   10.282521   5.711230   5.979928   6.950293   4.643938
    35  H   10.426078   4.881773   5.198390   5.820929   4.421759
    36  H   10.019089   5.430404   6.194855   6.726118   4.422090
                   31         32         33         34         35
    31  H    0.000000
    32  H    2.494814   0.000000
    33  H    4.321230   2.494981   0.000000
    34  H    3.233544   5.675574   6.974648   0.000000
    35  H    1.903338   4.247155   5.762957   1.817138   0.000000
    36  H    1.902761   4.246679   5.762656   1.817457   1.818140
                   36
    36  H    0.000000
 Stoichiometry    C13H18N2O3
 Framework group  C1[X(C13H18N2O3)]
 Deg. of freedom   102
 Full point group                 C1      NOp   1
 Largest Abelian subgroup         C1      NOp   1
 Largest concise Abelian subgroup C1      NOp   1
                         Standard orientation:                         
 ---------------------------------------------------------------------
 Center     Atomic      Atomic             Coordinates (Angstroms)
 Number     Number       Type             X           Y           Z
 ---------------------------------------------------------------------
      1          6           0       -2.348772   -1.171519   -0.143513
      2          7           0       -2.091471    1.226511   -0.281592
      3          6           0       -1.373602   -0.020675   -0.103793
      4          6           0       -0.658528   -0.008366    1.240881
      5          8           0       -1.951311   -2.304871   -0.013563
      6          7           0       -3.684084   -0.931305   -0.326785
      7          6           0       -4.621141   -2.037226   -0.364994
      8          6           0       -1.410655    2.414269   -0.281212
      9          8           0       -2.008723    3.453320   -0.429357
     10          6           0        0.086845    2.425471   -0.095529
     11          6           0        0.815192   -0.158226    1.024486
     12          6           0        1.321105   -0.281189   -0.269508
     13          6           0        2.694241   -0.420916   -0.471074
     14          6           0        3.561352   -0.437550    0.621327
     15          6           0        3.055465   -0.314494    1.915297
     16          6           0        1.682303   -0.174860    2.116888
     17          8           0        3.185728   -0.540481   -1.728098
     18          6           0        4.581687   -0.669190   -1.706712
     19          1           0       -3.095721    1.219037   -0.406130
     20          1           0       -0.626376   -0.138119   -0.920139
     21          1           0       -0.860751    0.955599    1.759217
     22          1           0       -1.029224   -0.851505    1.865733
     23          1           0       -4.017041    0.018087   -0.435602
     24          1           0       -4.071023   -2.995102   -0.228495
     25          1           0       -5.367316   -1.918870    0.452311
     26          1           0       -5.143943   -2.046522   -1.347484
     27          1           0        0.454125    1.381693    0.024292
     28          1           0        0.567166    2.887232   -0.987014
     29          1           0        0.343518    3.015466    0.812654
     30          1           0        0.637202   -0.267961   -1.130965
     31          1           0        4.644224   -0.547663    0.462288
     32          1           0        3.739358   -0.327499    2.776774
     33          1           0        1.283226   -0.077842    3.137358
     34          1           0        4.961885   -0.765732   -2.748217
     35          1           0        5.029495    0.231779   -1.230855
     36          1           0        4.861574   -1.575445   -1.124193
 ---------------------------------------------------------------------
 Rotational constants (GHZ):      0.5977156      0.2450443      0.2133293
 Standard basis: 6-31G(d) (6D, 7F)
 There are   306 symmetry adapted cartesian basis functions of A   symmetry.
 There are   306 symmetry adapted basis functions of A   symmetry.
   306 basis functions,   576 primitive gaussians,   306 cartesian basis functions
    67 alpha electrons       67 beta electrons
       nuclear repulsion energy      1354.0382283038 Hartrees.
 NAtoms=   36 NActive=   36 NUniq=   36 SFac= 1.00D+00 NAtFMM=   60 NAOKFM=F Big=F
 Integral buffers will be    131072 words long.
 Raffenetti 2 integral format.
 Two-electron integral symmetry is turned on.
 Nuclear repulsion after empirical dispersion term =     1353.9647607650 Hartrees.
 One-electron integrals computed using PRISM.
 NBasis=   306 RedAO= T EigKep=  4.18D-04  NBF=   306
 NBsUse=   306 1.00D-06 EigRej= -1.00D+00 NBFU=   306
 ExpMin= 1.61D-01 ExpMax= 5.48D+03 ExpMxC= 8.25D+02 IAcc=1 IRadAn=         1 AccDes= 0.00D+00
 Harris functional with IExCor=  402 and IRadAn=       1 diagonalized for initial guess.
 HarFok:  IExCor=  402 AccDes= 0.00D+00 IRadAn=         1 IDoV= 1 UseB2=F ITyADJ=14
 ICtDFT=  3500011 ScaDFX=  1.000000  1.000000  1.000000  1.000000
 FoFCou: FMM=F IPFlag=           0 FMFlag=      100000 FMFlg1=           0
         NFxFlg=           0 DoJE=T BraDBF=F KetDBF=T FulRan=T
         wScrn=  0.000000 ICntrl=     500 IOpCl=  0 I1Cent=   200000004 NGrid=           0
         NMat0=    1 NMatS0=      1 NMatT0=    0 NMatD0=    1 NMtDS0=    0 NMtDT0=    0
 Petite list used in FoFCou.
 Keep R1 ints in memory in canonical form, NReq=1117931590.
 Requested convergence on RMS density matrix=1.00D-08 within 128 cycles.
 Requested convergence on MAX density matrix=1.00D-06.
 Requested convergence on             energy=1.00D-06.
 No special actions if energy rises.
 Integral accuracy reduced to 1.0D-05 until final iterations.
 Initial convergence to 1.0D-05 achieved.  Increase integral accuracy.
 SCF Done:  E(RB3LYP) =  -841.394784167     A.U. after   15 cycles
            NFock= 15  Conv=0.74D-08     -V/T= 2.0087

 **********************************************************************

            Population analysis using the SCF density.

 **********************************************************************

 Orbital symmetries:
       Occupied  (A) (A) (A) (A) (A) (A) (A) (A) (A) (A) (A) (A)
                 (A) (A) (A) (A) (A) (A) (A) (A) (A) (A) (A) (A)
                 (A) (A) (A) (A) (A) (A) (A) (A) (A) (A) (A) (A)
                 (A) (A) (A) (A) (A) (A) (A) (A) (A) (A) (A) (A)
                 (A) (A) (A) (A) (A) (A) (A) (A) (A) (A) (A) (A)
                 (A) (A) (A) (A) (A) (A) (A)
       Virtual   (A) (A) (A) (A) (A) (A) (A) (A) (A) (A) (A) (A)
                 (A) (A) (A) (A) (A) (A) (A) (A) (A) (A) (A) (A)
                 (A) (A) (A) (A) (A) (A) (A) (A) (A) (A) (A) (A)
                 (A) (A) (A) (A) (A) (A) (A) (A) (A) (A) (A) (A)
                 (A) (A) (A) (A) (A) (A) (A) (A) (A) (A) (A) (A)
                 (A) (A) (A) (A) (A) (A) (A) (A) (A) (A) (A) (A)
                 (A) (A) (A) (A) (A) (A) (A) (A) (A) (A) (A) (A)
                 (A) (A) (A) (A) (A) (A) (A) (A) (A) (A) (A) (A)
                 (A) (A) (A) (A) (A) (A) (A) (A) (A) (A) (A) (A)
                 (A) (A) (A) (A) (A) (A) (A) (A) (A) (A) (A) (A)
                 (A) (A) (A) (A) (A) (A) (A) (A) (A) (A) (A) (A)
                 (A) (A) (A) (A) (A) (A) (A) (A) (A) (A) (A) (A)
                 (A) (A) (A) (A) (A) (A) (A) (A) (A) (A) (A) (A)
                 (A) (A) (A) (A) (A) (A) (A) (A) (A) (A) (A) (A)
                 (A) (A) (A) (A) (A) (A) (A) (A) (A) (A) (A) (A)
                 (A) (A) (A) (A) (A) (A) (A) (A) (A) (A) (A) (A)
                 (A) (A) (A) (A) (A) (A) (A) (A) (A) (A) (A) (A)
                 (A) (A) (A) (A) (A) (A) (A) (A) (A) (A) (A) (A)
                 (A) (A) (A) (A) (A) (A) (A) (A) (A) (A) (A) (A)
                 (A) (A) (A) (A) (A) (A) (A) (A) (A) (A) (A)
 The electronic state is 1-A.
 Alpha  occ. eigenvalues --  -19.18708 -19.11392 -19.09344 -14.37338 -14.35588
 Alpha  occ. eigenvalues --  -10.29212 -10.27480 -10.25091 -10.24631 -10.23805
 Alpha  occ. eigenvalues --  -10.22813 -10.20448 -10.20221 -10.19786 -10.19086
 Alpha  occ. eigenvalues --  -10.18838 -10.18757 -10.17425  -1.08385  -1.05056
 Alpha  occ. eigenvalues --   -1.02783  -0.94229  -0.91894  -0.86643  -0.80072
 Alpha  occ. eigenvalues --   -0.76109  -0.74956  -0.72563  -0.70931  -0.70157
 Alpha  occ. eigenvalues --   -0.66698  -0.61582  -0.60469  -0.58434  -0.57783
 Alpha  occ. eigenvalues --   -0.55243  -0.53811  -0.50184  -0.49263  -0.48127
 Alpha  occ. eigenvalues --   -0.48036  -0.47246  -0.46498  -0.45618  -0.44657
 Alpha  occ. eigenvalues --   -0.44085  -0.43403  -0.42390  -0.41516  -0.40201
 Alpha  occ. eigenvalues --   -0.39862  -0.39538  -0.38500  -0.37856  -0.37442
 Alpha  occ. eigenvalues --   -0.36588  -0.36132  -0.35773  -0.34473  -0.32725
 Alpha  occ. eigenvalues --   -0.31960  -0.26265  -0.26101  -0.25177  -0.24180
 Alpha  occ. eigenvalues --   -0.22709  -0.22447
 Alpha virt. eigenvalues --   -0.00954   0.00237   0.01727   0.03779   0.03915
 Alpha virt. eigenvalues --    0.08405   0.09842   0.10517   0.10899   0.11154
 Alpha virt. eigenvalues --    0.12004   0.12905   0.14193   0.15128   0.15625
 Alpha virt. eigenvalues --    0.15985   0.16092   0.16485   0.16838   0.18401
 Alpha virt. eigenvalues --    0.19042   0.19620   0.20564   0.22423   0.22713
 Alpha virt. eigenvalues --    0.24247   0.25493   0.26432   0.26842   0.28572
 Alpha virt. eigenvalues --    0.29353   0.30618   0.32129   0.34829   0.36365
 Alpha virt. eigenvalues --    0.39283   0.40765   0.41318   0.42668   0.45272
 Alpha virt. eigenvalues --    0.49151   0.50931   0.51361   0.52051   0.53032
 Alpha virt. eigenvalues --    0.53473   0.54079   0.54846   0.55422   0.56445
 Alpha virt. eigenvalues --    0.57645   0.58041   0.59095   0.59455   0.60469
 Alpha virt. eigenvalues --    0.61313   0.61515   0.62886   0.63139   0.63344
 Alpha virt. eigenvalues --    0.65193   0.65876   0.66776   0.67874   0.70119
 Alpha virt. eigenvalues --    0.70808   0.71530   0.72279   0.73440   0.73859
 Alpha virt. eigenvalues --    0.74495   0.76555   0.77232   0.78684   0.80224
 Alpha virt. eigenvalues --    0.81342   0.81994   0.82740   0.83658   0.84422
 Alpha virt. eigenvalues --    0.84697   0.85559   0.85935   0.86829   0.87714
 Alpha virt. eigenvalues --    0.88081   0.88189   0.89146   0.90499   0.90705
 Alpha virt. eigenvalues --    0.91209   0.93095   0.93388   0.94336   0.95734
 Alpha virt. eigenvalues --    0.97068   0.98336   0.99768   1.01311   1.03385
 Alpha virt. eigenvalues --    1.04573   1.04946   1.06499   1.06970   1.07582
 Alpha virt. eigenvalues --    1.09461   1.09670   1.11220   1.12015   1.12739
 Alpha virt. eigenvalues --    1.15343   1.18911   1.20717   1.22695   1.24235
 Alpha virt. eigenvalues --    1.25414   1.26549   1.30258   1.31784   1.34914
 Alpha virt. eigenvalues --    1.35463   1.36220   1.37379   1.38949   1.39681
 Alpha virt. eigenvalues --    1.42553   1.44867   1.45925   1.46378   1.48325
 Alpha virt. eigenvalues --    1.48828   1.49525   1.51690   1.51857   1.53589
 Alpha virt. eigenvalues --    1.62644   1.63455   1.67426   1.68855   1.71800
 Alpha virt. eigenvalues --    1.74638   1.76731   1.77620   1.79198   1.79785
 Alpha virt. eigenvalues --    1.81554   1.82539   1.83202   1.83701   1.85619
 Alpha virt. eigenvalues --    1.86993   1.88004   1.89721   1.89884   1.91689
 Alpha virt. eigenvalues --    1.91936   1.93116   1.93421   1.94293   1.96952
 Alpha virt. eigenvalues --    1.99246   1.99780   2.00538   2.02951   2.04203
 Alpha virt. eigenvalues --    2.06206   2.06583   2.09096   2.11006   2.12210
 Alpha virt. eigenvalues --    2.12865   2.14060   2.15216   2.17292   2.17852
 Alpha virt. eigenvalues --    2.19621   2.21802   2.23002   2.23384   2.24140
 Alpha virt. eigenvalues --    2.25296   2.25494   2.26732   2.27882   2.32509
 Alpha virt. eigenvalues --    2.33395   2.35590   2.36501   2.38145   2.40219
 Alpha virt. eigenvalues --    2.41681   2.45562   2.46817   2.49635   2.52964
 Alpha virt. eigenvalues --    2.53661   2.54744   2.55679   2.57470   2.62703
 Alpha virt. eigenvalues --    2.65499   2.66358   2.66844   2.67430   2.68638
 Alpha virt. eigenvalues --    2.69149   2.73408   2.77280   2.81650   2.84518
 Alpha virt. eigenvalues --    2.86368   2.91965   2.95154   2.97748   3.00464
 Alpha virt. eigenvalues --    3.02050   3.10345   3.10853   3.19474   3.24102
 Alpha virt. eigenvalues --    3.42937   3.94196   4.03383   4.03825   4.05233
 Alpha virt. eigenvalues --    4.09852   4.19914   4.21568   4.23133   4.26642
 Alpha virt. eigenvalues --    4.27914   4.31765   4.35558   4.39544   4.44761
 Alpha virt. eigenvalues --    4.60962   4.62054   4.78048   4.81631
          Condensed to atoms (all electrons):
               1          2          3          4          5          6
     1  C    4.330951  -0.012617   0.319984  -0.012979   0.589681   0.266019
     2  N   -0.012617   7.316766   0.125893  -0.070550   0.002904  -0.005609
     3  C    0.319984   0.125893   5.271711   0.306417  -0.084371  -0.113455
     4  C   -0.012979  -0.070550   0.306417   5.336901  -0.001483   0.000797
     5  O    0.589681   0.002904  -0.084371  -0.001483   8.090327  -0.109937
     6  N    0.266019  -0.005609  -0.113455   0.000797  -0.109937   7.154949
     7  C   -0.026168   0.000280   0.005833  -0.000094  -0.011324   0.260722
     8  C    0.001405   0.273302  -0.011279  -0.006381  -0.000039   0.000559
     9  O   -0.000104  -0.101262   0.003366  -0.000065   0.000000   0.000004
    10  C    0.000900  -0.132652   0.011919  -0.001768  -0.000005  -0.000032
    11  C   -0.002864   0.002449  -0.024515   0.308668  -0.001291  -0.000021
    12  C   -0.000911  -0.000104  -0.016342  -0.072188   0.000776  -0.000007
    13  C   -0.000052  -0.000092   0.003308   0.006327  -0.000007   0.000001
    14  C    0.000000   0.000000  -0.000028   0.000552   0.000000   0.000000
    15  C    0.000002   0.000003  -0.000243   0.006414   0.000001   0.000000
    16  C    0.000020  -0.000168   0.003325  -0.052260  -0.000065   0.000002
    17  O    0.000000   0.000000   0.000019  -0.000080   0.000000   0.000000
    18  C    0.000000   0.000000   0.000000   0.000004   0.000000   0.000000
    19  H   -0.009123   0.258840  -0.037341   0.003886   0.000063   0.004049
    20  H   -0.022104  -0.041987   0.369640  -0.068873   0.002124   0.000311
    21  H    0.001532  -0.000381  -0.049766   0.366704   0.000414  -0.000124
    22  H   -0.001536   0.005052  -0.043489   0.351744   0.008162   0.000556
    23  H   -0.013490   0.000696  -0.002933   0.000313   0.004183   0.282418
    24  H   -0.002184  -0.000049   0.001143  -0.000017   0.023785  -0.036325
    25  H    0.001233  -0.000005  -0.000127   0.000021   0.000708  -0.044482
    26  H    0.001287   0.000000  -0.000178  -0.000005   0.000693  -0.044518
    27  H    0.001555   0.005847  -0.004511  -0.013388   0.000017   0.000019
    28  H   -0.000017   0.002420  -0.000236   0.000335   0.000000   0.000000
    29  H   -0.000026   0.002576  -0.000431  -0.000347   0.000000   0.000000
    30  H    0.000505   0.000453  -0.023706  -0.008079  -0.000190  -0.000002
    31  H    0.000000   0.000000   0.000000   0.000008   0.000000   0.000000
    32  H    0.000000   0.000000   0.000002  -0.000197   0.000000   0.000000
    33  H   -0.000015  -0.000001   0.000291  -0.008245  -0.000001   0.000000
    34  H    0.000000   0.000000   0.000000   0.000000   0.000000   0.000000
    35  H    0.000000   0.000000   0.000000   0.000000   0.000000   0.000000
    36  H    0.000000   0.000000   0.000000   0.000000   0.000000   0.000000
               7          8          9         10         11         12
     1  C   -0.026168   0.001405  -0.000104   0.000900  -0.002864  -0.000911
     2  N    0.000280   0.273302  -0.101262  -0.132652   0.002449  -0.000104
     3  C    0.005833  -0.011279   0.003366   0.011919  -0.024515  -0.016342
     4  C   -0.000094  -0.006381  -0.000065  -0.001768   0.308668  -0.072188
     5  O   -0.011324  -0.000039   0.000000  -0.000005  -0.001291   0.000776
     6  N    0.260722   0.000559   0.000004  -0.000032  -0.000021  -0.000007
     7  C    4.974701  -0.000007   0.000000   0.000001   0.000001   0.000000
     8  C   -0.000007   4.265239   0.608764   0.344089   0.001777   0.001116
     9  O    0.000000   0.608764   8.074722  -0.093102  -0.000029  -0.000027
    10  C    0.000001   0.344089  -0.093102   5.436620  -0.040465  -0.036804
    11  C    0.000001   0.001777  -0.000029  -0.040465   4.784855   0.528580
    12  C    0.000000   0.001116  -0.000027  -0.036804   0.528580   5.233595
    13  C    0.000000   0.000020   0.000000  -0.001007  -0.023068   0.499117
    14  C    0.000000   0.000001   0.000000   0.000345  -0.043442  -0.082099
    15  C    0.000000  -0.000001   0.000000   0.000473  -0.005646  -0.043878
    16  C    0.000000  -0.000014   0.000000  -0.000270   0.553807  -0.047274
    17  O    0.000000   0.000000   0.000000   0.000007   0.002456  -0.050584
    18  C    0.000000   0.000000   0.000000  -0.000001  -0.000056   0.003442
    19  H   -0.000394   0.001281   0.013100   0.009052  -0.000154   0.000002
    20  H   -0.000077  -0.003941  -0.000008  -0.000952  -0.013508  -0.006672
    21  H    0.000004  -0.001022  -0.000383   0.003282  -0.034630   0.001453
    22  H   -0.000022   0.000088  -0.000001   0.000258  -0.019691   0.002029
    23  H   -0.025875  -0.000325  -0.000249  -0.000029   0.000002  -0.000004
    24  H    0.372774   0.000001   0.000000   0.000000   0.000001   0.000000
    25  H    0.379666   0.000000   0.000000   0.000000   0.000000   0.000000
    26  H    0.380380   0.000000   0.000000   0.000000   0.000000   0.000000
    27  H    0.000000  -0.022848   0.005882   0.286003  -0.009564  -0.008563
    28  H    0.000000  -0.019483  -0.001398   0.364856   0.000307   0.001303
    29  H    0.000000  -0.020111  -0.001234   0.364530   0.002265   0.000451
    30  H    0.000000  -0.000028  -0.000003  -0.000009  -0.065859   0.326871
    31  H    0.000000   0.000000   0.000000   0.000001   0.000706   0.004300
    32  H    0.000000   0.000000   0.000000   0.000001   0.003379   0.001041
    33  H    0.000000   0.000001   0.000000  -0.000117  -0.051416   0.005577
    34  H    0.000000   0.000000   0.000000   0.000000   0.000004  -0.000012
    35  H    0.000000   0.000000   0.000000  -0.000001  -0.000040  -0.000230
    36  H    0.000000   0.000000   0.000000   0.000000  -0.000025  -0.000208
              13         14         15         16         17         18
     1  C   -0.000052   0.000000   0.000002   0.000020   0.000000   0.000000
     2  N   -0.000092   0.000000   0.000003  -0.000168   0.000000   0.000000
     3  C    0.003308  -0.000028  -0.000243   0.003325   0.000019   0.000000
     4  C    0.006327   0.000552   0.006414  -0.052260  -0.000080   0.000004
     5  O   -0.000007   0.000000   0.000001  -0.000065   0.000000   0.000000
     6  N    0.000001   0.000000   0.000000   0.000002   0.000000   0.000000
     7  C    0.000000   0.000000   0.000000   0.000000   0.000000   0.000000
     8  C    0.000020   0.000001  -0.000001  -0.000014   0.000000   0.000000
     9  O    0.000000   0.000000   0.000000   0.000000   0.000000   0.000000
    10  C   -0.001007   0.000345   0.000473  -0.000270   0.000007  -0.000001
    11  C   -0.023068  -0.043442  -0.005646   0.553807   0.002456  -0.000056
    12  C    0.499117  -0.082099  -0.043878  -0.047274  -0.050584   0.003442
    13  C    4.543209   0.474325  -0.004150  -0.034020   0.296824  -0.065483
    14  C    0.474325   5.136258   0.505769  -0.041402  -0.073309  -0.008516
    15  C   -0.004150   0.505769   4.881000   0.525201   0.003957   0.001462
    16  C   -0.034020  -0.041402   0.525201   4.949548   0.000384  -0.000025
    17  O    0.296824  -0.073309   0.003957   0.000384   8.165657   0.254616
    18  C   -0.065483  -0.008516   0.001462  -0.000025   0.254616   4.932842
    19  H    0.000001   0.000000   0.000000   0.000002   0.000000   0.000000
    20  H    0.002566  -0.000198  -0.000023   0.000572  -0.000182   0.000005
    21  H   -0.000116   0.000019   0.000002  -0.005370   0.000001   0.000000
    22  H   -0.000057   0.000019  -0.000029  -0.005768   0.000000   0.000000
    23  H    0.000000   0.000000   0.000000   0.000000   0.000000   0.000000
    24  H    0.000000   0.000000   0.000000   0.000000   0.000000   0.000000
    25  H    0.000000   0.000000   0.000000   0.000000   0.000000   0.000000
    26  H    0.000000   0.000000   0.000000   0.000000   0.000000   0.000000
    27  H   -0.003675  -0.000105  -0.000531  -0.003414   0.000054  -0.000005
    28  H    0.000118  -0.000004  -0.000008   0.000024   0.000000   0.000000
    29  H    0.000038  -0.000019  -0.000033   0.000323   0.000000   0.000000
    30  H   -0.012424   0.008480  -0.000091   0.003976   0.003350  -0.000234
    31  H   -0.052029   0.356525  -0.034563   0.004099  -0.010244   0.005147
    32  H    0.002939  -0.037179   0.352901  -0.036065  -0.000056   0.000000
    33  H    0.000349   0.005372  -0.043530   0.360538   0.000002  -0.000001
    34  H    0.004626   0.001041  -0.000031   0.000001  -0.030365   0.372726
    35  H   -0.010827   0.005269   0.000192  -0.000023  -0.038259   0.365470
    36  H   -0.010739   0.005011   0.000214  -0.000025  -0.037985   0.366213
              19         20         21         22         23         24
     1  C   -0.009123  -0.022104   0.001532  -0.001536  -0.013490  -0.002184
     2  N    0.258840  -0.041987  -0.000381   0.005052   0.000696  -0.000049
     3  C   -0.037341   0.369640  -0.049766  -0.043489  -0.002933   0.001143
     4  C    0.003886  -0.068873   0.366704   0.351744   0.000313  -0.000017
     5  O    0.000063   0.002124   0.000414   0.008162   0.004183   0.023785
     6  N    0.004049   0.000311  -0.000124   0.000556   0.282418  -0.036325
     7  C   -0.000394  -0.000077   0.000004  -0.000022  -0.025875   0.372774
     8  C    0.001281  -0.003941  -0.001022   0.000088  -0.000325   0.000001
     9  O    0.013100  -0.000008  -0.000383  -0.000001  -0.000249   0.000000
    10  C    0.009052  -0.000952   0.003282   0.000258  -0.000029   0.000000
    11  C   -0.000154  -0.013508  -0.034630  -0.019691   0.000002   0.000001
    12  C    0.000002  -0.006672   0.001453   0.002029  -0.000004   0.000000
    13  C    0.000001   0.002566  -0.000116  -0.000057   0.000000   0.000000
    14  C    0.000000  -0.000198   0.000019   0.000019   0.000000   0.000000
    15  C    0.000000  -0.000023   0.000002  -0.000029   0.000000   0.000000
    16  C    0.000002   0.000572  -0.005370  -0.005768   0.000000   0.000000
    17  O    0.000000  -0.000182   0.000001   0.000000   0.000000   0.000000
    18  C    0.000000   0.000005   0.000000   0.000000   0.000000   0.000000
    19  H    0.425836   0.003325   0.000620  -0.000092   0.013684  -0.000007
    20  H    0.003325   0.579215   0.004402   0.004573   0.000013  -0.000018
    21  H    0.000620   0.004402   0.555981  -0.019324  -0.000086   0.000000
    22  H   -0.000092   0.004573  -0.019324   0.523154  -0.000068  -0.000032
    23  H    0.013684   0.000013  -0.000086  -0.000068   0.420556   0.003465
    24  H   -0.000007  -0.000018   0.000000  -0.000032   0.003465   0.469526
    25  H   -0.000004  -0.000005  -0.000001   0.000012  -0.000535  -0.023365
    26  H   -0.000013   0.000021   0.000000  -0.000001  -0.000506  -0.023183
    27  H   -0.001099  -0.008438  -0.006770   0.001352   0.000022   0.000000
    28  H   -0.000134   0.000350   0.000281  -0.000013  -0.000001   0.000000
    29  H   -0.000137   0.000000   0.000628  -0.000003  -0.000001   0.000000
    30  H   -0.000051   0.009627   0.000014  -0.000105  -0.000002   0.000000
    31  H    0.000000  -0.000001   0.000000   0.000000   0.000000   0.000000
    32  H    0.000000   0.000000   0.000000  -0.000002   0.000000   0.000000
    33  H    0.000000   0.000027   0.002203   0.002118   0.000000   0.000000
    34  H    0.000000   0.000000   0.000000   0.000000   0.000000   0.000000
    35  H    0.000000  -0.000001   0.000000   0.000000   0.000000   0.000000
    36  H    0.000000  -0.000001   0.000000   0.000000   0.000000   0.000000
              25         26         27         28         29         30
     1  C    0.001233   0.001287   0.001555  -0.000017  -0.000026   0.000505
     2  N   -0.000005   0.000000   0.005847   0.002420   0.002576   0.000453
     3  C   -0.000127  -0.000178  -0.004511  -0.000236  -0.000431  -0.023706
     4  C    0.000021  -0.000005  -0.013388   0.000335  -0.000347  -0.008079
     5  O    0.000708   0.000693   0.000017   0.000000   0.000000  -0.000190
     6  N   -0.044482  -0.044518   0.000019   0.000000   0.000000  -0.000002
     7  C    0.379666   0.380380   0.000000   0.000000   0.000000   0.000000
     8  C    0.000000   0.000000  -0.022848  -0.019483  -0.020111  -0.000028
     9  O    0.000000   0.000000   0.005882  -0.001398  -0.001234  -0.000003
    10  C    0.000000   0.000000   0.286003   0.364856   0.364530  -0.000009
    11  C    0.000000   0.000000  -0.009564   0.000307   0.002265  -0.065859
    12  C    0.000000   0.000000  -0.008563   0.001303   0.000451   0.326871
    13  C    0.000000   0.000000  -0.003675   0.000118   0.000038  -0.012424
    14  C    0.000000   0.000000  -0.000105  -0.000004  -0.000019   0.008480
    15  C    0.000000   0.000000  -0.000531  -0.000008  -0.000033  -0.000091
    16  C    0.000000   0.000000  -0.003414   0.000024   0.000323   0.003976
    17  O    0.000000   0.000000   0.000054   0.000000   0.000000   0.003350
    18  C    0.000000   0.000000  -0.000005   0.000000   0.000000  -0.000234
    19  H   -0.000004  -0.000013  -0.001099  -0.000134  -0.000137  -0.000051
    20  H   -0.000005   0.000021  -0.008438   0.000350   0.000000   0.009627
    21  H   -0.000001   0.000000  -0.006770   0.000281   0.000628   0.000014
    22  H    0.000012  -0.000001   0.001352  -0.000013  -0.000003  -0.000105
    23  H   -0.000535  -0.000506   0.000022  -0.000001  -0.000001  -0.000002
    24  H   -0.023365  -0.023183   0.000000   0.000000   0.000000   0.000000
    25  H    0.566846  -0.036959   0.000000   0.000000   0.000000   0.000000
    26  H   -0.036959   0.564622   0.000000   0.000000   0.000000   0.000000
    27  H    0.000000   0.000000   0.696846  -0.027967  -0.028960  -0.006930
    28  H    0.000000   0.000000  -0.027967   0.523051  -0.018958   0.000246
    29  H    0.000000   0.000000  -0.028960  -0.018958   0.523408   0.000061
    30  H    0.000000   0.000000  -0.006930   0.000246   0.000061   0.602745
    31  H    0.000000   0.000000   0.000004   0.000000   0.000000  -0.000146
    32  H    0.000000   0.000000  -0.000005   0.000000   0.000001   0.000018
    33  H    0.000000   0.000000   0.000138   0.000001   0.000001  -0.000163
    34  H    0.000000   0.000000   0.000000   0.000000   0.000000  -0.000027
    35  H    0.000000   0.000000   0.000002   0.000000   0.000000   0.000059
    36  H    0.000000   0.000000   0.000000   0.000000   0.000000   0.000060
              31         32         33         34         35         36
     1  C    0.000000   0.000000  -0.000015   0.000000   0.000000   0.000000
     2  N    0.000000   0.000000  -0.000001   0.000000   0.000000   0.000000
     3  C    0.000000   0.000002   0.000291   0.000000   0.000000   0.000000
     4  C    0.000008  -0.000197  -0.008245   0.000000   0.000000   0.000000
     5  O    0.000000   0.000000  -0.000001   0.000000   0.000000   0.000000
     6  N    0.000000   0.000000   0.000000   0.000000   0.000000   0.000000
     7  C    0.000000   0.000000   0.000000   0.000000   0.000000   0.000000
     8  C    0.000000   0.000000   0.000001   0.000000   0.000000   0.000000
     9  O    0.000000   0.000000   0.000000   0.000000   0.000000   0.000000
    10  C    0.000001   0.000001  -0.000117   0.000000  -0.000001   0.000000
    11  C    0.000706   0.003379  -0.051416   0.000004  -0.000040  -0.000025
    12  C    0.004300   0.001041   0.005577  -0.000012  -0.000230  -0.000208
    13  C   -0.052029   0.002939   0.000349   0.004626  -0.010827  -0.010739
    14  C    0.356525  -0.037179   0.005372   0.001041   0.005269   0.005011
    15  C   -0.034563   0.352901  -0.043530  -0.000031   0.000192   0.000214
    16  C    0.004099  -0.036065   0.360538   0.000001  -0.000023  -0.000025
    17  O   -0.010244  -0.000056   0.000002  -0.030365  -0.038259  -0.037985
    18  C    0.005147   0.000000  -0.000001   0.372726   0.365470   0.366213
    19  H    0.000000   0.000000   0.000000   0.000000   0.000000   0.000000
    20  H   -0.000001   0.000000   0.000027   0.000000  -0.000001  -0.000001
    21  H    0.000000   0.000000   0.002203   0.000000   0.000000   0.000000
    22  H    0.000000  -0.000002   0.002118   0.000000   0.000000   0.000000
    23  H    0.000000   0.000000   0.000000   0.000000   0.000000   0.000000
    24  H    0.000000   0.000000   0.000000   0.000000   0.000000   0.000000
    25  H    0.000000   0.000000   0.000000   0.000000   0.000000   0.000000
    26  H    0.000000   0.000000   0.000000   0.000000   0.000000   0.000000
    27  H    0.000004  -0.000005   0.000138   0.000000   0.000002   0.000000
    28  H    0.000000   0.000000   0.000001   0.000000   0.000000   0.000000
    29  H    0.000000   0.000001   0.000001   0.000000   0.000000   0.000000
    30  H   -0.000146   0.000018  -0.000163  -0.000027   0.000059   0.000060
    31  H    0.593074  -0.005159  -0.000157   0.000365  -0.000747  -0.000781
    32  H   -0.005159   0.589454  -0.004892   0.000000   0.000006   0.000006
    33  H   -0.000157  -0.004892   0.608505   0.000000   0.000000   0.000000
    34  H    0.000365   0.000000   0.000000   0.549202  -0.030490  -0.030266
    35  H   -0.000747   0.000006   0.000000  -0.030490   0.606312  -0.052910
    36  H   -0.000781   0.000006   0.000000  -0.030266  -0.052910   0.603063
 Mulliken charges:
               1
     1  C    0.589118
     2  N   -0.632002
     3  C   -0.009898
     4  C   -0.372092
     5  O   -0.515124
     6  N   -0.615893
     7  C   -0.310400
     8  C    0.587835
     9  O   -0.507973
    10  C   -0.515125
    11  C    0.147029
    12  C   -0.243745
    13  C    0.383978
    14  C   -0.212684
    15  C   -0.144832
    16  C   -0.175659
    17  O   -0.486263
    18  C   -0.227606
    19  H    0.314806
    20  H    0.190216
    21  H    0.180434
    22  H    0.191117
    23  H    0.318752
    24  H    0.214486
    25  H    0.156997
    26  H    0.158360
    27  H    0.149032
    28  H    0.174928
    29  H    0.175981
    30  H    0.161587
    31  H    0.139599
    32  H    0.133807
    33  H    0.123415
    34  H    0.163225
    35  H    0.156220
    36  H    0.158373
 Sum of Mulliken charges =   0.00000
 Mulliken charges with hydrogens summed into heavy atoms:
               1
     1  C    0.589118
     2  N   -0.317196
     3  C    0.180318
     4  C   -0.000541
     5  O   -0.515124
     6  N   -0.297142
     7  C    0.219442
     8  C    0.587835
     9  O   -0.507973
    10  C   -0.015184
    11  C    0.147029
    12  C   -0.082157
    13  C    0.383978
    14  C   -0.073085
    15  C   -0.011026
    16  C   -0.052244
    17  O   -0.486263
    18  C    0.250212
 Electronic spatial extent (au):  <R**2>=           5465.3776
 Charge=              0.0000 electrons
 Dipole moment (field-independent basis, Debye):
    X=              0.9448    Y=             -1.5408    Z=              0.5901  Tot=              1.9013
 Quadrupole moment (field-independent basis, Debye-Ang):
   XX=            -77.6839   YY=           -130.6254   ZZ=           -102.1069
   XY=              7.2465   XZ=             -0.6684   YZ=              3.0431
 Traceless Quadrupole moment (field-independent basis, Debye-Ang):
   XX=             25.7882   YY=            -27.1534   ZZ=              1.3652
   XY=              7.2465   XZ=             -0.6684   YZ=              3.0431
 Octapole moment (field-independent basis, Debye-Ang**2):
  XXX=            -14.3965  YYY=            -50.6047  ZZZ=             -0.1699  XYY=             36.8358
  XXY=            -42.2468  XXZ=            -24.4014  XZZ=              3.0778  YZZ=              0.3990
  YYZ=              2.4200  XYZ=             -4.5326
 Hexadecapole moment (field-independent basis, Debye-Ang**3):
 XXXX=          -3920.6210 YYYY=          -1793.8296 ZZZZ=           -783.7163 XXXY=             33.3105
 XXXZ=            -67.4631 YYYX=            159.5497 YYYZ=             42.7744 ZZZX=            -11.0866
 ZZZY=              1.0114 XXYY=          -1111.0958 XXZZ=           -872.2765 YYZZ=           -387.9643
 XXYZ=             28.1169 YYXZ=            -33.5261 ZZXY=             -3.4799
 N-N= 1.353964760765D+03 E-N=-4.667098215682D+03  KE= 8.341440019901D+02
 Calling FoFJK, ICntrl=      2127 FMM=F ISym2X=0 I1Cent= 0 IOpClX= 0 NMat=1 NMatS=1 NMatT=0.
 ***** Axes restored to original set *****
 -------------------------------------------------------------------
 Center     Atomic                   Forces (Hartrees/Bohr)
 Number     Number              X              Y              Z
 -------------------------------------------------------------------
      1        6           0.016668153    0.002868750    0.001104554
      2        7          -0.010906360   -0.015509614    0.003466403
      3        6           0.026881609    0.024537049    0.002200199
      4        6          -0.009116424    0.005606805   -0.013402000
      5        8          -0.018352498   -0.018691111   -0.022417406
      6        7          -0.006117695   -0.003065766    0.005751335
      7        6           0.010121078    0.006294298   -0.006699980
      8        6           0.007849596    0.005744236    0.006925450
      9        8           0.017188753    0.019976838    0.023117415
     10        6          -0.004137317   -0.010928181   -0.010183151
     11        6          -0.013427382   -0.010357848   -0.018155690
     12        6          -0.009963352   -0.020367325   -0.010308713
     13        6          -0.004402834    0.007442702   -0.002657406
     14        6          -0.020809785    0.002136292   -0.000111726
     15        6          -0.003675535    0.004066757   -0.000654747
     16        6          -0.009663689    0.004304200   -0.001071776
     17        8           0.009281668   -0.000119796    0.000389701
     18        6          -0.003707804   -0.028590904    0.007548163
     19        1          -0.007822724   -0.002094542    0.019349770
     20        1           0.018379489    0.030526671   -0.015036815
     21        1           0.001731583   -0.006431298   -0.012825040
     22        1          -0.001264196   -0.002219889    0.012070590
     23        1           0.005253121    0.000078080   -0.014224041
     24        1           0.005216587    0.007656923    0.013801612
     25        1           0.002387127   -0.010675052    0.000103639
     26        1          -0.009339784    0.004280408   -0.003839410
     27        1           0.004667150    0.010697233    0.045281583
     28        1          -0.003050248    0.009882185   -0.007044478
     29        1           0.009594448   -0.007570540   -0.003056322
     30        1          -0.025717368   -0.018495234    0.002969686
     31        1           0.003956828    0.019673108   -0.005293968
     32        1           0.009037302   -0.001719254    0.000470663
     33        1           0.004401084   -0.007357510    0.001937680
     34        1          -0.000862266    0.013683837   -0.003678232
     35        1           0.004797420   -0.009864146   -0.006309595
     36        1           0.004924264   -0.005398361    0.010482051
 -------------------------------------------------------------------
 Cartesian Forces:  Max     0.045281583 RMS     0.012133458

 GradGradGradGradGradGradGradGradGradGradGradGradGradGradGradGradGradGrad
 Berny optimization.
 FormGI is forming the generalized inverse of G from B-inverse, IUseBI=4.
 Internal  Forces:  Max     0.160598107 RMS     0.029316053
 Search for a local minimum.
 Step number   1 out of a maximum of  183
 All quantities printed in internal units (Hartrees-Bohrs-Radians)
 Mixed Optimization -- RFO/linear search
 Second derivative matrix not updated -- first step.
 ITU=  0
     Eigenvalues ---    0.00461   0.00647   0.00647   0.00805   0.01030
     Eigenvalues ---    0.01031   0.01229   0.01229   0.01458   0.01459
     Eigenvalues ---    0.01617   0.01665   0.02101   0.02101   0.02157
     Eigenvalues ---    0.02157   0.02157   0.02157   0.02157   0.02157
     Eigenvalues ---    0.02158   0.02181   0.02287   0.04617   0.05056
     Eigenvalues ---    0.05237   0.05622   0.06410   0.07469   0.07473
     Eigenvalues ---    0.07682   0.07686   0.08899   0.10486   0.10489
     Eigenvalues ---    0.12479   0.16000   0.16000   0.16000   0.16000
     Eigenvalues ---    0.16000   0.16000   0.16000   0.16000   0.16000
     Eigenvalues ---    0.16000   0.16000   0.16000   0.16000   0.16000
     Eigenvalues ---    0.16000   0.16931   0.18052   0.21989   0.22000
     Eigenvalues ---    0.22000   0.22000   0.23479   0.23493   0.25000
     Eigenvalues ---    0.25000   0.25000   0.25000   0.25000   0.25000
     Eigenvalues ---    0.25000   0.30076   0.31450   0.31455   0.32275
     Eigenvalues ---    0.32283   0.32284   0.32284   0.32284   0.32286
     Eigenvalues ---    0.32286   0.32287   0.32288   0.32289   0.32292
     Eigenvalues ---    0.32294   0.32690   0.33680   0.33681   0.33681
     Eigenvalues ---    0.33682   0.38241   0.38248   0.42235   0.42429
     Eigenvalues ---    0.45284   0.45644   0.45647   0.46480   0.46488
     Eigenvalues ---    0.46491   0.46494   0.51156   0.51161   0.53976
     Eigenvalues ---    1.00887   1.00905
 RFO step:  Lambda=-2.87189461D-01 EMin= 4.61257140D-03
 Linear search not attempted -- first point.
 Maximum step size (   0.300) exceeded in Quadratic search.
    -- Step size scaled by   0.425
 Iteration  1 RMS(Cart)=  0.23622811 RMS(Int)=  0.00958768
 Iteration  2 RMS(Cart)=  0.06146265 RMS(Int)=  0.00056946
 Iteration  3 RMS(Cart)=  0.00134672 RMS(Int)=  0.00026174
 Iteration  4 RMS(Cart)=  0.00000105 RMS(Int)=  0.00026174
 Iteration  5 RMS(Cart)=  0.00000000 RMS(Int)=  0.00026174
 Variable       Old X    -DE/DX   Delta X   Delta X   Delta X     New X
                                 (Linear)    (Quad)   (Total)
    R1        2.85153   0.02449   0.00000   0.01728   0.01728   2.86881
    R2        2.28286   0.03326   0.00000   0.01090   0.01090   2.29375
    R3        2.58717   0.00905   0.00000   0.00481   0.00481   2.59198
    R4        2.74005   0.06627   0.00000   0.04202   0.04202   2.78207
    R5        2.58712   0.04081   0.00000   0.02169   0.02169   2.60881
    R6        1.91235  -0.01207   0.00000  -0.00689  -0.00689   1.90546
    R7        2.87812   0.04835   0.00000   0.03492   0.03492   2.91304
    R8        2.10309  -0.03288   0.00000  -0.02288  -0.02288   2.08021
    R9        2.82900   0.06809   0.00000   0.04708   0.04708   2.87608
   R10        2.10329  -0.01337   0.00000  -0.00931  -0.00931   2.09398
   R11        2.10324  -0.01174   0.00000  -0.00817  -0.00817   2.09507
   R12        2.74016   0.00188   0.00000   0.00119   0.00119   2.74136
   R13        1.91231  -0.00979   0.00000  -0.00559  -0.00559   1.90672
   R14        2.10328  -0.01624   0.00000  -0.01131  -0.01131   2.09197
   R15        2.10327  -0.01040   0.00000  -0.00724  -0.00724   2.09603
   R16        2.10320  -0.01047   0.00000  -0.00729  -0.00729   2.09591
   R17        2.28278   0.03500   0.00000   0.01147   0.01147   2.29425
   R18        2.85162  -0.00076   0.00000  -0.00054  -0.00054   2.85108
   R19        2.10323  -0.04348   0.00000  -0.03026  -0.03026   2.07296
   R20        2.10319  -0.01231   0.00000  -0.00857  -0.00857   2.09462
   R21        2.10327  -0.01250   0.00000  -0.00870  -0.00870   2.09456
   R22        2.63581   0.02475   0.00000   0.01423   0.01424   2.65005
   R23        2.63581   0.00663   0.00000   0.00368   0.00371   2.63952
   R24        2.63592   0.00525   0.00000   0.00328   0.00327   2.63919
   R25        2.07871  -0.02308   0.00000  -0.01571  -0.01571   2.06300
   R26        2.63581   0.01278   0.00000   0.00727   0.00725   2.64306
   R27        2.56054   0.03458   0.00000   0.01776   0.01776   2.57829
   R28        2.63576  -0.00708   0.00000  -0.00425  -0.00427   2.63149
   R29        2.07872  -0.01858   0.00000  -0.01264  -0.01264   2.06608
   R30        2.63595  -0.00533   0.00000  -0.00332  -0.00332   2.63264
   R31        2.07872  -0.00919   0.00000  -0.00626  -0.00626   2.07246
   R32        2.07873  -0.00872   0.00000  -0.00593  -0.00593   2.07280
   R33        2.64948   0.01768   0.00000   0.01014   0.01014   2.65962
   R34        2.10312  -0.01331   0.00000  -0.00926  -0.00926   2.09386
   R35        2.10322  -0.01067   0.00000  -0.00743  -0.00743   2.09580
   R36        2.10343  -0.01083   0.00000  -0.00754  -0.00754   2.09589
    A1        2.09447  -0.01907   0.00000  -0.01507  -0.01507   2.07940
    A2        2.09442   0.01757   0.00000   0.01389   0.01389   2.10831
    A3        2.09429   0.00149   0.00000   0.00118   0.00118   2.09547
    A4        2.09440   0.16060   0.00000   0.13445   0.13445   2.22885
    A5        2.09445  -0.06392   0.00000  -0.05167  -0.05167   2.04278
    A6        2.09433  -0.09668   0.00000  -0.08278  -0.08278   2.01155
    A7        1.91010  -0.00543   0.00000  -0.00624  -0.00568   1.90441
    A8        1.91009  -0.04138   0.00000  -0.03867  -0.03851   1.87158
    A9        1.91146  -0.00346   0.00000  -0.01041  -0.01042   1.90104
   A10        1.91108   0.04625   0.00000   0.04415   0.04386   1.95495
   A11        1.91053  -0.00821   0.00000  -0.00376  -0.00448   1.90605
   A12        1.91054   0.01223   0.00000   0.01494   0.01429   1.92482
   A13        1.91109   0.14879   0.00000   0.12684   0.12712   2.03821
   A14        1.91013  -0.04558   0.00000  -0.03643  -0.03752   1.87262
   A15        1.91046  -0.03132   0.00000  -0.02497  -0.02391   1.88655
   A16        1.91015  -0.02463   0.00000  -0.01373  -0.01419   1.89595
   A17        1.91049  -0.06420   0.00000  -0.05838  -0.05822   1.85227
   A18        1.91148   0.01704   0.00000   0.00674   0.00526   1.91674
   A19        2.09440   0.00466   0.00000   0.00390   0.00390   2.09830
   A20        2.09430   0.00875   0.00000   0.00857   0.00857   2.10286
   A21        2.09449  -0.01341   0.00000  -0.01247  -0.01247   2.08202
   A22        1.91107  -0.00725   0.00000  -0.00703  -0.00702   1.90404
   A23        1.91006   0.00533   0.00000   0.00514   0.00514   1.91519
   A24        1.91048   0.00515   0.00000   0.00496   0.00495   1.91543
   A25        1.91009   0.00015   0.00000   0.00001   0.00001   1.91010
   A26        1.91054   0.00014   0.00000  -0.00002  -0.00001   1.91053
   A27        1.91156  -0.00353   0.00000  -0.00305  -0.00307   1.90849
   A28        2.09440  -0.03933   0.00000  -0.03108  -0.03109   2.06332
   A29        2.09437   0.07423   0.00000   0.05868   0.05867   2.15304
   A30        2.09442  -0.03491   0.00000  -0.02759  -0.02760   2.06682
   A31        1.91109   0.02764   0.00000   0.02687   0.02685   1.93794
   A32        1.91006  -0.00661   0.00000  -0.00675  -0.00676   1.90330
   A33        1.91049  -0.00414   0.00000  -0.00409  -0.00413   1.90636
   A34        1.91019  -0.00876   0.00000  -0.00801  -0.00801   1.90218
   A35        1.91048  -0.00649   0.00000  -0.00522  -0.00527   1.90521
   A36        1.91149  -0.00162   0.00000  -0.00278  -0.00283   1.90866
   A37        2.09438   0.09632   0.00000   0.07613   0.07610   2.17048
   A38        2.09436  -0.06588   0.00000  -0.05208  -0.05211   2.04225
   A39        2.09445  -0.03043   0.00000  -0.02404  -0.02401   2.07044
   A40        2.09434   0.01767   0.00000   0.01537   0.01537   2.10972
   A41        2.09436   0.01384   0.00000   0.01385   0.01384   2.10820
   A42        2.09449  -0.03151   0.00000  -0.02921  -0.02922   2.06527
   A43        2.09440  -0.00629   0.00000  -0.00471  -0.00475   2.08965
   A44        2.09437  -0.04674   0.00000  -0.03707  -0.03705   2.05731
   A45        2.09442   0.05303   0.00000   0.04178   0.04180   2.13622
   A46        2.09445  -0.00527   0.00000  -0.00499  -0.00504   2.08942
   A47        2.09433   0.01225   0.00000   0.01162   0.01164   2.10597
   A48        2.09440  -0.00697   0.00000  -0.00663  -0.00661   2.08780
   A49        2.09435   0.00742   0.00000   0.00507   0.00506   2.09941
   A50        2.09441  -0.00433   0.00000  -0.00313  -0.00312   2.09128
   A51        2.09443  -0.00309   0.00000  -0.00195  -0.00194   2.09249
   A52        2.09439   0.01691   0.00000   0.01331   0.01334   2.10773
   A53        2.09436  -0.00965   0.00000  -0.00779  -0.00780   2.08655
   A54        2.09444  -0.00726   0.00000  -0.00552  -0.00554   2.08890
   A55        1.93382   0.09646   0.00000   0.07624   0.07624   2.01006
   A56        1.91116  -0.01333   0.00000  -0.01314  -0.01313   1.89803
   A57        1.91008   0.01023   0.00000   0.00996   0.00992   1.92001
   A58        1.91037   0.01011   0.00000   0.00984   0.00980   1.92017
   A59        1.91016  -0.00293   0.00000  -0.00325  -0.00324   1.90692
   A60        1.91052  -0.00296   0.00000  -0.00330  -0.00329   1.90723
   A61        1.91151  -0.00113   0.00000  -0.00011  -0.00018   1.91133
    D1       -3.14150  -0.01384   0.00000  -0.01286  -0.01297   3.12871
    D2       -1.04721   0.01416   0.00000   0.01373   0.01366  -1.03356
    D3        1.04724   0.00165   0.00000   0.00195   0.00214   1.04938
    D4        0.00005  -0.01439   0.00000  -0.01363  -0.01374  -0.01369
    D5        2.09434   0.01361   0.00000   0.01296   0.01289   2.10723
    D6       -2.09439   0.00111   0.00000   0.00118   0.00137  -2.09302
    D7        3.14156   0.00038   0.00000   0.00053   0.00053  -3.14109
    D8       -0.00001   0.00039   0.00000   0.00055   0.00055   0.00055
    D9       -0.00007  -0.00017   0.00000  -0.00024  -0.00024  -0.00032
   D10        3.14154  -0.00015   0.00000  -0.00022  -0.00022   3.14132
   D11       -3.14152   0.00301   0.00000   0.00874   0.00873  -3.13279
   D12        1.04799   0.02871   0.00000   0.03291   0.03289   1.08088
   D13       -1.04650  -0.00957   0.00000  -0.01013  -0.01006  -1.05656
   D14       -0.00011   0.00054   0.00000   0.00527   0.00523   0.00513
   D15       -2.09379   0.02624   0.00000   0.02944   0.02940  -2.06439
   D16        2.09491  -0.01204   0.00000  -0.01360  -0.01356   2.08135
   D17        3.14158   0.00394   0.00000   0.00532   0.00534  -3.13627
   D18       -0.00017   0.00739   0.00000   0.01021   0.01023   0.01005
[...]
    30  H    0.001019   0.000016  -0.001060  -0.008532   0.019194   0.000178
    31  H    0.000000   0.000000   0.000000   0.000007   0.000000   0.000000
    32  H    0.000000   0.000000   0.000001  -0.000204   0.000000   0.000000
    33  H   -0.000006  -0.000051   0.000158  -0.010650   0.000000   0.000000
    34  H    0.000000   0.000000   0.000000   0.000000   0.000000   0.000000
    35  H    0.000000   0.000000   0.000000   0.000000   0.000000   0.000000
    36  H    0.000000   0.000000   0.000000   0.000000   0.000000   0.000000
               7          8          9         10         11         12
     1  C   -0.026184   0.000921  -0.000066   0.000001  -0.003837   0.001565
     2  N    0.000247   0.256706  -0.096469  -0.135299   0.003409   0.000349
     3  C    0.006359  -0.020398   0.002741   0.004552  -0.020932  -0.008391
     4  C   -0.000089  -0.000574   0.000024  -0.000703   0.340250  -0.060610
     5  O   -0.008141  -0.000039   0.000000   0.000003  -0.007005  -0.002191
     6  N    0.265840   0.000144   0.000006  -0.000028  -0.000127  -0.000020
     7  C    4.964019   0.000011   0.000000  -0.000001   0.000001   0.000001
     8  C    0.000011   4.317140   0.622088   0.333052   0.000349   0.000001
     9  O    0.000000   0.622088   8.024982  -0.084473  -0.000003   0.000000
    10  C   -0.000001   0.333052  -0.084473   5.380999  -0.001281   0.000018
    11  C    0.000001   0.000349  -0.000003  -0.001281   4.660284   0.537504
    12  C    0.000001   0.000001   0.000000   0.000018   0.537504   5.151780
    13  C    0.000000   0.000000   0.000000   0.000009  -0.012267   0.493361
    14  C    0.000000   0.000000   0.000000   0.000010  -0.034100  -0.075159
    15  C    0.000000   0.000003   0.000000  -0.000114  -0.014428  -0.043873
    16  C    0.000000   0.000111  -0.000001  -0.002577   0.539135  -0.053583
    17  O    0.000000   0.000000   0.000000   0.000000   0.002434  -0.050025
    18  C    0.000000   0.000000   0.000000   0.000000  -0.000099   0.004213
    19  H   -0.000137  -0.010394   0.009789   0.009062   0.000042  -0.000001
    20  H   -0.000183  -0.010462   0.000035   0.007684   0.002170   0.003778
    21  H    0.000002   0.001526  -0.000152  -0.000150  -0.032488   0.005499
    22  H   -0.000018  -0.000179   0.000001  -0.000009  -0.017648  -0.005173
    23  H   -0.029288   0.000397  -0.000145  -0.000025  -0.000015  -0.000003
    24  H    0.376136   0.000001   0.000000   0.000000   0.000002   0.000000
    25  H    0.381977  -0.000001   0.000000   0.000000   0.000000   0.000000
    26  H    0.381502   0.000001   0.000000   0.000000   0.000000   0.000000
    27  H    0.000000  -0.016010   0.001206   0.341125   0.001966  -0.000111
    28  H    0.000000  -0.019744   0.001502   0.347443  -0.000003  -0.000005
    29  H    0.000000  -0.022302   0.004815   0.356437   0.000005   0.000000
    30  H    0.000001   0.000000   0.000000   0.000000  -0.039789   0.331687
    31  H    0.000000   0.000000   0.000000   0.000000   0.000584   0.004353
    32  H    0.000000   0.000000   0.000000  -0.000001   0.003596   0.000959
    33  H    0.000000   0.000035   0.000001  -0.000164  -0.044128   0.006299
    34  H    0.000000   0.000000   0.000000   0.000000   0.000001  -0.000110
    35  H    0.000000   0.000000   0.000000   0.000000   0.000001   0.000033
    36  H    0.000000   0.000000   0.000000   0.000000   0.000008   0.000016
              13         14         15         16         17         18
     1  C    0.000068  -0.000002   0.000001   0.000037   0.000000   0.000000
     2  N    0.000003   0.000000  -0.000001  -0.000092   0.000000   0.000000
     3  C   -0.000150   0.000024  -0.000083  -0.002126  -0.000001   0.000000
     4  C    0.006316   0.000472   0.007289  -0.054098  -0.000065   0.000003
     5  O    0.000454   0.000001   0.000000  -0.000047  -0.000002   0.000000
     6  N    0.000001   0.000000   0.000000   0.000001   0.000000   0.000000
     7  C    0.000000   0.000000   0.000000   0.000000   0.000000   0.000000
     8  C    0.000000   0.000000   0.000003   0.000111   0.000000   0.000000
     9  O    0.000000   0.000000   0.000000  -0.000001   0.000000   0.000000
    10  C    0.000009   0.000010  -0.000114  -0.002577   0.000000   0.000000
    11  C   -0.012267  -0.034100  -0.014428   0.539135   0.002434  -0.000099
    12  C    0.493361  -0.075159  -0.043873  -0.053583  -0.050025   0.004213
    13  C    4.553134   0.470193   0.006594  -0.044158   0.275418  -0.043555
    14  C    0.470193   5.104903   0.505158  -0.042469  -0.062500  -0.007002
    15  C    0.006594   0.505158   4.878991   0.525739   0.003800   0.000359
    16  C   -0.044158  -0.042469   0.525739   5.000376   0.000378  -0.000011
    17  O    0.275418  -0.062500   0.003800   0.000378   8.196698   0.249516
    18  C   -0.043555  -0.007002   0.000359  -0.000011   0.249516   4.893839
    19  H    0.000000   0.000000   0.000000   0.000003   0.000000   0.000000
    20  H   -0.000165  -0.000026  -0.000174   0.001555  -0.000001   0.000000
    21  H   -0.000108   0.000010   0.000215  -0.007155   0.000000   0.000000
    22  H   -0.000053   0.000011  -0.000206   0.002535   0.000000   0.000000
    23  H    0.000000   0.000000   0.000000   0.000000   0.000000   0.000000
    24  H    0.000000   0.000000   0.000000   0.000000   0.000000   0.000000
    25  H    0.000000   0.000000   0.000000   0.000000   0.000000   0.000000
    26  H    0.000000   0.000000   0.000000   0.000000   0.000000   0.000000
    27  H   -0.000051  -0.000056   0.000500   0.008593   0.000000   0.000000
    28  H   -0.000001   0.000000   0.000001   0.000003   0.000000   0.000000
    29  H    0.000000   0.000000   0.000000   0.000024   0.000000   0.000000
    30  H   -0.035752   0.006977  -0.000290   0.006083   0.000691  -0.000225
    31  H   -0.047039   0.355021  -0.040422   0.004523  -0.007899   0.006270
    32  H    0.003119  -0.039250   0.354050  -0.037746  -0.000052  -0.000008
    33  H    0.000401   0.005065  -0.045477   0.353400   0.000002   0.000000
    34  H    0.003335   0.000275   0.000001   0.000000  -0.033743   0.386444
    35  H   -0.004684   0.004756  -0.000163  -0.000006  -0.035827   0.361932
    36  H   -0.004647   0.004858  -0.000149  -0.000010  -0.035527   0.362615
              19         20         21         22         23         24
     1  C   -0.000717  -0.026666   0.003578  -0.002583  -0.027592   0.000196
     2  N    0.277667  -0.036070  -0.001580   0.002285   0.025958  -0.000066
     3  C   -0.035410   0.364723  -0.044882  -0.045354  -0.004736   0.001115
     4  C   -0.001882  -0.051587   0.356642   0.352887   0.000762  -0.000014
     5  O    0.000054  -0.000176   0.000560   0.010159   0.003117   0.020363
     6  N    0.002156  -0.001096  -0.000077   0.000634   0.298851  -0.040677
     7  C   -0.000137  -0.000183   0.000002  -0.000018  -0.029288   0.376136
     8  C   -0.010394  -0.010462   0.001526  -0.000179   0.000397   0.000001
     9  O    0.009789   0.000035  -0.000152   0.000001  -0.000145   0.000000
    10  C    0.009062   0.007684  -0.000150  -0.000009  -0.000025   0.000000
    11  C    0.000042   0.002170  -0.032488  -0.017648  -0.000015   0.000002
    12  C   -0.000001   0.003778   0.005499  -0.005173  -0.000003   0.000000
    13  C    0.000000  -0.000165  -0.000108  -0.000053   0.000000   0.000000
    14  C    0.000000  -0.000026   0.000010   0.000011   0.000000   0.000000
    15  C    0.000000  -0.000174   0.000215  -0.000206   0.000000   0.000000
    16  C    0.000003   0.001555  -0.007155   0.002535   0.000000   0.000000
    17  O    0.000000  -0.000001   0.000000   0.000000   0.000000   0.000000
    18  C    0.000000   0.000000   0.000000   0.000000   0.000000   0.000000
    19  H    0.415621   0.004797   0.001437   0.000693  -0.000472  -0.000007
    20  H    0.004797   0.538959   0.002740   0.005052  -0.000212  -0.000021
    21  H    0.001437   0.002740   0.585096  -0.027249  -0.000023   0.000000
    22  H    0.000693   0.005052  -0.027249   0.536928  -0.000067  -0.000010
    23  H   -0.000472  -0.000212  -0.000023  -0.000067   0.388910   0.003455
    24  H   -0.000007  -0.000021   0.000000  -0.000010   0.003455   0.483850
    25  H   -0.000024  -0.000007   0.000000   0.000001  -0.000161  -0.024195
    26  H    0.000009   0.000037   0.000000   0.000000  -0.001176  -0.024940
    27  H   -0.000356  -0.001056   0.000082   0.000039   0.000001   0.000000
    28  H   -0.000217   0.002922   0.000031  -0.000003   0.000084   0.000000
    29  H   -0.000163   0.000070   0.000011   0.000001  -0.000003   0.000000
    30  H    0.000002   0.000693   0.000080   0.002050  -0.000009  -0.000012
    31  H    0.000000   0.000000   0.000000   0.000000   0.000000   0.000000
    32  H    0.000000   0.000002  -0.000011   0.000003   0.000000   0.000000
    33  H    0.000004   0.000100   0.007202   0.000114   0.000000   0.000000
    34  H    0.000000   0.000000   0.000000   0.000000   0.000000   0.000000
    35  H    0.000000   0.000000   0.000000   0.000000   0.000000   0.000000
    36  H    0.000000   0.000000   0.000000   0.000000   0.000000   0.000000
              25         26         27         28         29         30
     1  C    0.000664   0.001483   0.000223  -0.000160  -0.000002   0.001019
     2  N   -0.000001   0.000002   0.000775   0.003907   0.004844   0.000016
     3  C    0.000010  -0.000313  -0.000924  -0.003327   0.000274  -0.001060
     4  C    0.000007  -0.000003   0.000168   0.000260  -0.000022  -0.008532
     5  O    0.000413   0.000509  -0.000001   0.000000   0.000000   0.019194
     6  N   -0.040807  -0.041469  -0.000001   0.000058   0.000000   0.000178
     7  C    0.381977   0.381502   0.000000   0.000000   0.000000   0.000001
     8  C   -0.000001   0.000001  -0.016010  -0.019744  -0.022302   0.000000
     9  O    0.000000   0.000000   0.001206   0.001502   0.004815   0.000000
    10  C    0.000000   0.000000   0.341125   0.347443   0.356437   0.000000
    11  C    0.000000   0.000000   0.001966  -0.000003   0.000005  -0.039789
    12  C    0.000000   0.000000  -0.000111  -0.000005   0.000000   0.331687
    13  C    0.000000   0.000000  -0.000051  -0.000001   0.000000  -0.035752
    14  C    0.000000   0.000000  -0.000056   0.000000   0.000000   0.006977
    15  C    0.000000   0.000000   0.000500   0.000001   0.000000  -0.000290
    16  C    0.000000   0.000000   0.008593   0.000003   0.000024   0.006083
    17  O    0.000000   0.000000   0.000000   0.000000   0.000000   0.000691
    18  C    0.000000   0.000000   0.000000   0.000000   0.000000  -0.000225
    19  H   -0.000024   0.000009  -0.000356  -0.000217  -0.000163   0.000002
    20  H   -0.000007   0.000037  -0.001056   0.002922   0.000070   0.000693
    21  H    0.000000   0.000000   0.000082   0.000031   0.000011   0.000080
    22  H    0.000001   0.000000   0.000039  -0.000003   0.000001   0.002050
    23  H   -0.000161  -0.001176   0.000001   0.000084  -0.000003  -0.000009
    24  H   -0.024195  -0.024940   0.000000   0.000000   0.000000  -0.000012
    25  H    0.561218  -0.039499   0.000000   0.000000   0.000000   0.000000
    26  H   -0.039499   0.562601   0.000000   0.000000   0.000000   0.000001
    27  H    0.000000   0.000000   0.521306  -0.027293  -0.019420  -0.000001
    28  H    0.000000   0.000000  -0.027293   0.545402  -0.021292  -0.000001
    29  H    0.000000   0.000000  -0.019420  -0.021292   0.508564   0.000000
    30  H    0.000000   0.000001  -0.000001  -0.000001   0.000000   0.540589
    31  H    0.000000   0.000000   0.000000   0.000000   0.000000  -0.000134
    32  H    0.000000   0.000000   0.000003   0.000000   0.000000   0.000015
    33  H    0.000000   0.000000   0.001148  -0.000001   0.000004  -0.000135
    34  H    0.000000   0.000000   0.000000   0.000000   0.000000  -0.000027
    35  H    0.000000   0.000000   0.000000   0.000000   0.000000   0.000029
    36  H    0.000000   0.000000   0.000000   0.000000   0.000000   0.000030
              31         32         33         34         35         36
     1  C    0.000000   0.000000  -0.000006   0.000000   0.000000   0.000000
     2  N    0.000000   0.000000  -0.000051   0.000000   0.000000   0.000000
     3  C    0.000000   0.000001   0.000158   0.000000   0.000000   0.000000
     4  C    0.000007  -0.000204  -0.010650   0.000000   0.000000   0.000000
     5  O    0.000000   0.000000   0.000000   0.000000   0.000000   0.000000
     6  N    0.000000   0.000000   0.000000   0.000000   0.000000   0.000000
     7  C    0.000000   0.000000   0.000000   0.000000   0.000000   0.000000
     8  C    0.000000   0.000000   0.000035   0.000000   0.000000   0.000000
     9  O    0.000000   0.000000   0.000001   0.000000   0.000000   0.000000
    10  C    0.000000  -0.000001  -0.000164   0.000000   0.000000   0.000000
    11  C    0.000584   0.003596  -0.044128   0.000001   0.000001   0.000008
    12  C    0.004353   0.000959   0.006299  -0.000110   0.000033   0.000016
    13  C   -0.047039   0.003119   0.000401   0.003335  -0.004684  -0.004647
    14  C    0.355021  -0.039250   0.005065   0.000275   0.004756   0.004858
    15  C   -0.040422   0.354050  -0.045477   0.000001  -0.000163  -0.000149
    16  C    0.004523  -0.037746   0.353400   0.000000  -0.000006  -0.000010
    17  O   -0.007899  -0.000052   0.000002  -0.033743  -0.035827  -0.035527
    18  C    0.006270  -0.000008   0.000000   0.386444   0.361932   0.362615
    19  H    0.000000   0.000000   0.000004   0.000000   0.000000   0.000000
    20  H    0.000000   0.000002   0.000100   0.000000   0.000000   0.000000
    21  H    0.000000  -0.000011   0.007202   0.000000   0.000000   0.000000
    22  H    0.000000   0.000003   0.000114   0.000000   0.000000   0.000000
    23  H    0.000000   0.000000   0.000000   0.000000   0.000000   0.000000
    24  H    0.000000   0.000000   0.000000   0.000000   0.000000   0.000000
    25  H    0.000000   0.000000   0.000000   0.000000   0.000000   0.000000
    26  H    0.000000   0.000000   0.000000   0.000000   0.000000   0.000000
    27  H    0.000000   0.000003   0.001148   0.000000   0.000000   0.000000
    28  H    0.000000   0.000000  -0.000001   0.000000   0.000000   0.000000
    29  H    0.000000   0.000000   0.000004   0.000000   0.000000   0.000000
    30  H   -0.000134   0.000015  -0.000135  -0.000027   0.000029   0.000030
    31  H    0.597936  -0.005654  -0.000169  -0.000086   0.001836   0.001734
    32  H   -0.005654   0.597616  -0.005227   0.000000   0.000003   0.000003
    33  H   -0.000169  -0.005227   0.611444   0.000000   0.000000   0.000000
    34  H   -0.000086   0.000000   0.000000   0.538263  -0.032159  -0.031682
    35  H    0.001836   0.000003   0.000000  -0.032159   0.605626  -0.050374
    36  H    0.001734   0.000003   0.000000  -0.031682  -0.050374   0.601766
 Mulliken charges:
               1
     1  C    0.595174
     2  N   -0.618524
     3  C   -0.043329
     4  C   -0.358389
     5  O   -0.521150
     6  N   -0.587839
     7  C   -0.312055
     8  C    0.567618
     9  O   -0.485883
    10  C   -0.555570
    11  C    0.136407
    12  C   -0.242160
    13  C    0.380226
    14  C   -0.197171
    15  C   -0.137321
    16  C   -0.198417
    17  O   -0.503294
    18  C   -0.214290
    19  H    0.328443
    20  H    0.192580
    21  H    0.149162
    22  H    0.185157
    23  H    0.342392
    24  H    0.204823
    25  H    0.160405
    26  H    0.161257
    27  H    0.188140
    28  H    0.170433
    29  H    0.188153
    30  H    0.176629
    31  H    0.129140
    32  H    0.128782
    33  H    0.120629
    34  H    0.169487
    35  H    0.148996
    36  H    0.151359
 Sum of Mulliken charges =   0.00000
 Mulliken charges with hydrogens summed into heavy atoms:
               1
     1  C    0.595174
     2  N   -0.290081
     3  C    0.149252
     4  C   -0.024069
     5  O   -0.521150
     6  N   -0.245447
     7  C    0.214429
     8  C    0.567618
     9  O   -0.485883
    10  C   -0.008843
    11  C    0.136407
    12  C   -0.065531
    13  C    0.380226
    14  C   -0.068031
    15  C   -0.008539
    16  C   -0.077788
    17  O   -0.503294
    18  C    0.255552
 Electronic spatial extent (au):  <R**2>=           5834.4361
 Charge=              0.0000 electrons
 Dipole moment (field-independent basis, Debye):
    X=              1.0648    Y=             -0.8576    Z=             -2.0426  Tot=              2.4579
 Quadrupole moment (field-independent basis, Debye-Ang):
   XX=            -95.3871   YY=           -112.6049   ZZ=           -103.8801
   XY=             17.0424   XZ=             -3.1526   YZ=              3.7031
 Traceless Quadrupole moment (field-independent basis, Debye-Ang):
   XX=              8.5703   YY=             -8.6475   ZZ=              0.0773
   XY=             17.0424   XZ=             -3.1526   YZ=              3.7031
 Octapole moment (field-independent basis, Debye-Ang**2):
  XXX=             97.5026  YYY=            -28.1178  ZZZ=             -6.9438  XYY=             20.6667
  XXY=            -89.7230  XXZ=            -26.0335  XZZ=            -16.6028  YZZ=             -1.1202
  YYZ=            -14.0477  XYZ=             -2.1458
 Hexadecapole moment (field-independent basis, Debye-Ang**3):
 XXXX=          -4543.4694 YYYY=          -2129.8676 ZZZZ=           -471.5947 XXXY=            212.9095
 XXXZ=           -137.0945 YYYX=            147.1191 YYYZ=             24.0366 ZZZX=            -16.5335
 ZZZY=             -6.1204 XXYY=          -1235.1845 XXZZ=           -873.2535 YYZZ=           -432.2693
 XXYZ=             35.3602 YYXZ=             11.8065 ZZXY=            -33.7471
 N-N= 1.317833669443D+03 E-N=-4.594938108718D+03  KE= 8.336590326157D+02
 1\1\GINC-MERCURY\FOpt\RB3LYP\6-31G(d)\C13H18N2O3\ROTATIONS\03-Mar-2021
 \0\\#B3LYP/6-31G(d) em=GD3BJ Opt=ModRedundant\\scan rotamers\\0,1\C,1.
 743242262,0.8771843522,-1.4129908395\N,1.2657760274,2.5259130911,0.368
 0171816\C,0.8136106125,1.2833293945,-0.2502253391\C,-0.6779858316,1.30
 18552662,-0.6927461506\O,1.3374311978,0.1917953064,-2.3464640292\N,3.0
 266183872,1.2978306411,-1.2825356273\C,4.0652455767,0.9546672548,-2.23
 49240703\C,1.0600341186,2.8771847753,1.6940465431\O,1.1457786398,4.043
 3926801,2.0449665634\C,0.7713669814,1.7464671989,2.6656911348\C,-1.440
 9461863,0.088946364,-0.2094892073\C,-1.1510192441,-1.1733757938,-0.726
 7692372\C,-1.8189420818,-2.3071750988,-0.2479879079\C,-2.785157459,-2.
 1834868352,0.7580921806\C,-3.0713049424,-0.9165680256,1.2706222208\C,-
 2.4095628457,0.2134763541,0.7977488787\O,-1.4561108853,-3.4899966398,-
 0.8248458089\C,-2.1065075172,-4.6700662275,-0.3874401849\H,1.280466509
 4,3.3437873368,-0.2345930498\H,0.9375725737,0.494683304,0.4974734821\H
 ,-1.1394187495,2.2073834678,-0.2869154784\H,-0.7192297999,1.3616958968
 ,-1.7840268117\H,3.243454192,1.8688270309,-0.4767967433\H,3.5976710004
 ,0.3830641175,-3.0376574514\H,4.5264975193,1.8560800668,-2.6537487121\
 H,4.8452587296,0.3431623608,-1.7665529307\H,-0.1791435447,1.2529082514
 ,2.4338117343\H,1.5553262017,0.9812245022,2.6361243989\H,0.7220613811,
 2.1721844051,3.6680980247\H,-0.4038202278,-1.287138608,-1.5055633955\H
 ,-3.3119038018,-3.049565695,1.1403865826\H,-3.8236491738,-0.8174516892
 ,2.0484114998\H,-2.6486526319,1.1948047494,1.1992257826\H,-1.676723876
 2,-5.4844095181,-0.9732249196\H,-1.9285843273,-4.8576611404,0.68003108
 82\H,-3.1888487844,-4.6251528967,-0.5674494017\\Version=ES64L-G09RevD.
 01\State=1-A\HF=-841.4841361\RMSD=8.984e-09\RMSF=4.066e-06\Dipole=0.35
 44831,-0.8542868,0.2822228\Quadrupole=9.2707433,-2.8925998,-6.3781434,
 4.2929453,-4.8661623,-10.2459812\PG=C01 [X(C13H18N2O3)]\\@


 THE SOLUTION TO A PROBLEM CHANGES THE PROBLEM.

                                 -- JOHN PEERS
           PAUL DICKSON'S "THE OFFICIAL RULES"
 Job cpu time:       0 days  2 hours 20 minutes 34.9 seconds.
 File lengths (MBytes):  RWF=     46 Int=      0 D2E=      0 Chk=      8 Scr=      1
 Normal termination of Gaussian 09 at Wed Mar  3 17:38:30 2021.
