 Entering Gaussian System, Link 0=g09
 Initial command:
 /home/rotations/zhangf/install/g09/l1.exe "/home/rotations/zhangf/install/g09/scratch/Gau-10158.inp" -scrdir="/home/rotations/zhangf/install/g09/scratch/"
 Default is to use a total of   4 processors:
                                4 via shared-memory
                                1 via Linda
 Entering Link 1 = /home/rotations/zhangf/install/g09/l1.exe PID=     10159.
  
 Copyright (c) 1988,1990,1992,1993,1995,1998,2003,2009,2013,
            Gaussian, Inc.  All Rights Reserved.
  
 This is part of the Gaussian(R) 09 program.  It is based on
 the Gaussian(R) 03 system (copyright 2003, Gaussian, Inc.),
 the Gaussian(R) 98 system (copyright 1998, Gaussian, Inc.),
 the Gaussian(R) 94 system (copyright 1995, Gaussian, Inc.),
 the Gaussian 92(TM) system (copyright 1992, Gaussian, Inc.),
 the Gaussian 90(TM) system (copyright 1990, Gaussian, Inc.),
 the Gaussian 88(TM) system (copyright 1988, Gaussian, Inc.),
 the Gaussian 86(TM) system (copyright 1986, Carnegie Mellon
 University), and the Gaussian 82(TM) system (copyright 1983,
 Carnegie Mellon University). Gaussian is a federally registered
 trademark of Gaussian, Inc.
  
 This software contains proprietary and confidential information,
 including trade secrets, belonging to Gaussian, Inc.
  
 This software is provided under written license and may be
 used, copied, transmitted, or stored only in accord with that
 written license.
  
 The following legend is applicable only to US Government
 contracts under FAR:
  
                    RESTRICTED RIGHTS LEGEND
  
 Use, reproduction and disclosure by the US Government is
 subject to restrictions as set forth in subparagraphs (a)
 and (c) of the Commercial Computer Software - Restricted
 Rights clause in FAR 52.227-19.
  
 Gaussian, Inc.
 340 Quinnipiac St., Bldg. 40, Wallingford CT 06492
  
  
 ---------------------------------------------------------------
 Warning -- This program may not be used in any manner that
 competes with the business of Gaussian, Inc. or will provide
 assistance to any competitor of Gaussian, Inc.  The licensee
 of this program is prohibited from giving any competitor of
 Gaussian, Inc. access to this program.  By using this program,
 the user acknowledges that Gaussian, Inc. is engaged in the
 business of creating and licensing software in the field of
 computational chemistry and represents and warrants to the
 licensee that it is not a competitor of Gaussian, Inc. and that
 it will not use this program in any manner prohibited above.
 ---------------------------------------------------------------
  

 Cite this work as:
 Gaussian 09, Revision D.01,
 M. J. Frisch, G. W. Trucks, H. B. Schlegel, G. E. Scuseria, 
 M. A. Robb, J. R. Cheeseman, G. Scalmani, V. Barone, B. Mennucci, 
 G. A. Petersson, H. Nakatsuji, M. Caricato, X. Li, H. P. Hratchian, 
 A. F. Izmaylov, J. Bloino, G. Zheng, J. L. Sonnenberg, M. Hada, 
 M. Ehara, K. Toyota, R. Fukuda, J. Hasegawa, M. Ishida, T. Nakajima, 
 Y. Honda, O. Kitao, H. Nakai, T. Vreven, J. A. Montgomery, Jr., 
 J. E. Peralta, F. Ogliaro, M. Bearpark, J. J. Heyd, E. Brothers, 
 K. N. Kudin, V. N. Staroverov, T. Keith, R. Kobayashi, J. Normand, 
 K. Raghavachari, A. Rendell, J. C. Burant, S. S. Iyengar, J. Tomasi, 
 M. Cossi, N. Rega, J. M. Millam, M. Klene, J. E. Knox, J. B. Cross, 
 V. Bakken, C. Adamo, J. Jaramillo, R. Gomperts, R. E. Stratmann, 
 O. Yazyev, A. J. Austin, R. Cammi, C. Pomelli, J. W. Ochterski, 
 R. L. Martin, K. Morokuma, V. G. Zakrzewski, G. A. Voth, 
 P. Salvador, J. J. Dannenberg, S. Dapprich, A. D. Daniels, 
 O. Farkas, J. B. Foresman, J. V. Ortiz, J. Cioslowski, 
 and D. J. Fox, Gaussian, Inc., Wallingford CT, 2013.
 
 ******************************************
 Gaussian 09:  ES64L-G09RevD.01 24-Apr-2013
                 3-Mar-2021 
 ******************************************
 %Chk=/home/rotations/zhangf/gen_ncaa_params/gaussian_output/D-Orn.chk
 -----------------------------------------
 #B3LYP/6-31G(d) em=GD3BJ Opt=ModRedundant
 -----------------------------------------
 1/14=-1,18=120,19=15,26=3,38=1/1,3;
 2/9=110,12=2,17=6,18=5,40=1/2;
 3/5=1,6=6,7=1,11=2,16=1,25=1,30=1,71=1,74=-5,124=41/1,2,3;
 4//1;
 5/5=2,38=5/2;
 6/7=2,8=2,9=2,10=2,28=1/1;
 7//1,2,3,16;
 1/14=-1,18=20,19=15,26=3/3(2);
 2/9=110/2;
 99//99;
 2/9=110/2;
 3/5=1,6=6,7=1,11=2,16=1,25=1,30=1,71=1,74=-5,124=41/1,2,3;
 4/5=5,16=3,69=1/1;
 5/5=2,38=5/2;
 7//1,2,3,16;
 1/14=-1,18=20,19=15,26=3/3(-5);
 2/9=110/2;
 6/7=2,8=2,9=2,10=2,19=2,28=1/1;
 99/9=1/99;
 -------------
 scan rotamers
 -------------
 Symbolic Z-matrix:
 Charge =  1 Multiplicity = 1
 C                     2.2328    0.1693    0.6178 
 N                     1.1904   -2.0111    0.6178 
 C                     0.926    -0.5854    0.6178 
 C                     0.1283   -0.2177   -0.6264 
 O                     3.279    -0.4346    0.6178 
 N                     2.2326    1.5383    0.6178 
 C                     3.4883    2.2634    0.6178 
 C                     0.1495   -2.9003    0.6178 
 O                     0.3698   -4.088     0.6178 
 C                    -1.273    -2.3967    0.6178 
 C                    -1.2031    0.3959   -0.2138 
 C                    -2.0008    0.7636   -1.458 
 N                    -3.3121    1.3679   -1.0516 
 H                     2.1444   -2.3488    0.6178 
 H                     0.3425   -0.3164    1.5266 
 H                     0.7038    0.5182   -1.2314 
 H                    -0.057    -1.133    -1.232 
 H                     1.3562    2.0442    0.6178 
 H                     4.3347    1.5406    0.6178 
 H                     3.547     2.9026   -0.2915 
 H                     3.547     2.9032    1.5266 
 H                    -1.2731   -1.2837    0.6178 
 H                    -1.7972   -2.7672   -0.2915 
 H                    -1.7977   -2.7676    1.5266 
 H                    -1.7786   -0.3401    0.3912 
 H                    -1.0178    1.3112    0.3918 
 H                    -1.4254    1.4995   -2.0629 
 H                    -2.1861   -0.1517   -2.0635 
 H                    -3.8595    1.6202   -1.9053 
 H                    -3.8525    0.6769   -0.4836 
 H                    -3.1381    2.2273   -0.483 
 
 The following ModRedundant input section has been read:
 

 GradGradGradGradGradGradGradGradGradGradGradGradGradGradGradGradGradGrad
 Berny optimization.
 Initialization pass.
                           ----------------------------
                           !    Initial Parameters    !
                           ! (Angstroms and Degrees)  !
 --------------------------                            --------------------------
 ! Name  Definition              Value          Derivative Info.                !
 --------------------------------------------------------------------------------
 ! R1    R(1,3)                  1.5091         estimate D2E/DX2                !
 ! R2    R(1,5)                  1.208          estimate D2E/DX2                !
 ! R3    R(1,6)                  1.369          estimate D2E/DX2                !
 ! R4    R(2,3)                  1.45           estimate D2E/DX2                !
 ! R5    R(2,8)                  1.369          estimate D2E/DX2                !
 ! R6    R(2,14)                 1.012          estimate D2E/DX2                !
 ! R7    R(3,4)                  1.523          estimate D2E/DX2                !
 ! R8    R(3,15)                 1.113          estimate D2E/DX2                !
 ! R9    R(4,11)                 1.5229         estimate D2E/DX2                !
 ! R10   R(4,16)                 1.113          estimate D2E/DX2                !
 ! R11   R(4,17)                 1.113          estimate D2E/DX2                !
 ! R12   R(6,7)                  1.45           estimate D2E/DX2                !
 ! R13   R(6,18)                 1.0119         estimate D2E/DX2                !
 ! R14   R(7,19)                 1.113          estimate D2E/DX2                !
 ! R15   R(7,20)                 1.113          estimate D2E/DX2                !
 ! R16   R(7,21)                 1.113          estimate D2E/DX2                !
 ! R17   R(8,9)                  1.208          estimate D2E/DX2                !
 ! R18   R(8,10)                 1.509          estimate D2E/DX2                !
 ! R19   R(10,22)                1.113          estimate D2E/DX2                !
 ! R20   R(10,23)                1.1131         estimate D2E/DX2                !
 ! R21   R(10,24)                1.113          estimate D2E/DX2                !
 ! R22   R(11,12)                1.523          estimate D2E/DX2                !
 ! R23   R(11,25)                1.1131         estimate D2E/DX2                !
 ! R24   R(11,26)                1.113          estimate D2E/DX2                !
 ! R25   R(12,13)                1.4999         estimate D2E/DX2                !
 ! R26   R(12,27)                1.1129         estimate D2E/DX2                !
 ! R27   R(12,28)                1.113          estimate D2E/DX2                !
 ! R28   R(13,29)                1.045          estimate D2E/DX2                !
 ! R29   R(13,30)                1.0451         estimate D2E/DX2                !
 ! R30   R(13,31)                1.0451         estimate D2E/DX2                !
 ! A1    A(3,1,5)              119.9979         estimate D2E/DX2                !
 ! A2    A(3,1,6)              119.9988         estimate D2E/DX2                !
 ! A3    A(5,1,6)              120.0033         estimate D2E/DX2                !
 ! A4    A(3,2,8)              119.9997         estimate D2E/DX2                !
 ! A5    A(3,2,14)             119.9994         estimate D2E/DX2                !
 ! A6    A(8,2,14)             120.0009         estimate D2E/DX2                !
 ! A7    A(1,3,2)              109.5009         estimate D2E/DX2                !
 ! A8    A(1,3,4)              109.44           estimate D2E/DX2                !
 ! A9    A(1,3,15)             109.4583         estimate D2E/DX2                !
 ! A10   A(2,3,4)              109.4441         estimate D2E/DX2                !
 ! A11   A(2,3,15)             109.4652         estimate D2E/DX2                !
 ! A12   A(4,3,15)             109.5188         estimate D2E/DX2                !
 ! A13   A(3,4,11)             109.5018         estimate D2E/DX2                !
 ! A14   A(3,4,16)             109.4431         estimate D2E/DX2                !
 ! A15   A(3,4,17)             109.46           estimate D2E/DX2                !
 ! A16   A(11,4,16)            109.4454         estimate D2E/DX2                !
 ! A17   A(11,4,17)            109.4625         estimate D2E/DX2                !
 ! A18   A(16,4,17)            109.5145         estimate D2E/DX2                !
 ! A19   A(1,6,7)              119.9958         estimate D2E/DX2                !
 ! A20   A(1,6,18)             120.004          estimate D2E/DX2                !
 ! A21   A(7,6,18)             120.0003         estimate D2E/DX2                !
 ! A22   A(6,7,19)             109.4995         estimate D2E/DX2                !
 ! A23   A(6,7,20)             109.4418         estimate D2E/DX2                !
 ! A24   A(6,7,21)             109.4594         estimate D2E/DX2                !
 ! A25   A(19,7,20)            109.441          estimate D2E/DX2                !
 ! A26   A(19,7,21)            109.4634         estimate D2E/DX2                !
 ! A27   A(20,7,21)            109.5222         estimate D2E/DX2                !
 ! A28   A(2,8,9)              119.9979         estimate D2E/DX2                !
 ! A29   A(2,8,10)             119.9988         estimate D2E/DX2                !
 ! A30   A(9,8,10)             120.0033         estimate D2E/DX2                !
 ! A31   A(8,10,22)            109.5004         estimate D2E/DX2                !
 ! A32   A(8,10,23)            109.4431         estimate D2E/DX2                !
 ! A33   A(8,10,24)            109.4622         estimate D2E/DX2                !
 ! A34   A(22,10,23)           109.4404         estimate D2E/DX2                !
 ! A35   A(22,10,24)           109.463          estimate D2E/DX2                !
 ! A36   A(23,10,24)           109.5183         estimate D2E/DX2                !
 ! A37   A(4,11,12)            109.5018         estimate D2E/DX2                !
 ! A38   A(4,11,25)            109.442          estimate D2E/DX2                !
 ! A39   A(4,11,26)            109.4625         estimate D2E/DX2                !
 ! A40   A(12,11,25)           109.4433         estimate D2E/DX2                !
 ! A41   A(12,11,26)           109.46           estimate D2E/DX2                !
 ! A42   A(25,11,26)           109.5178         estimate D2E/DX2                !
 ! A43   A(11,12,13)           109.5006         estimate D2E/DX2                !
 ! A44   A(11,12,27)           109.4435         estimate D2E/DX2                !
 ! A45   A(11,12,28)           109.4565         estimate D2E/DX2                !
 ! A46   A(13,12,27)           109.4428         estimate D2E/DX2                !
 ! A47   A(13,12,28)           109.4615         estimate D2E/DX2                !
 ! A48   A(27,12,28)           109.5225         estimate D2E/DX2                !
 ! A49   A(12,13,29)           109.5032         estimate D2E/DX2                !
 ! A50   A(12,13,30)           109.4472         estimate D2E/DX2                !
 ! A51   A(12,13,31)           109.461          estimate D2E/DX2                !
 ! A52   A(29,13,30)           109.437          estimate D2E/DX2                !
 ! A53   A(29,13,31)           109.4597         estimate D2E/DX2                !
 ! A54   A(30,13,31)           109.5192         estimate D2E/DX2                !
 ! D1    D(5,1,3,2)              0.0            estimate D2E/DX2                !
 ! D2    D(5,1,3,4)           -119.9659         estimate D2E/DX2                !
 ! D3    D(5,1,3,15)           120.0029         estimate D2E/DX2                !
 ! D4    D(6,1,3,2)            180.0            estimate D2E/DX2                !
 ! D5    D(6,1,3,4)             60.0341         estimate D2E/DX2                !
 ! D6    D(6,1,3,15)           -59.9971         estimate D2E/DX2                !
 ! D7    D(3,1,6,7)            180.0            estimate D2E/DX2                !
 ! D8    D(3,1,6,18)             0.0            estimate D2E/DX2                !
 ! D9    D(5,1,6,7)              0.0            estimate D2E/DX2                !
 ! D10   D(5,1,6,18)           180.0            estimate D2E/DX2                !
 ! D11   D(8,2,3,1)            180.0            estimate D2E/DX2                !
 ! D12   D(8,2,3,4)            -60.0366         estimate D2E/DX2                !
 ! D13   D(8,2,3,15)            60.0014         estimate D2E/DX2                !
 ! D14   D(14,2,3,1)             0.0            estimate D2E/DX2                !
 ! D15   D(14,2,3,4)           119.9634         estimate D2E/DX2                !
 ! D16   D(14,2,3,15)         -119.9986         estimate D2E/DX2                !
 ! D17   D(3,2,8,9)            180.0            estimate D2E/DX2                !
 ! D18   D(3,2,8,10)             0.0            estimate D2E/DX2                !
 ! D19   D(14,2,8,9)             0.0            estimate D2E/DX2                !
 ! D20   D(14,2,8,10)          180.0            estimate D2E/DX2                !
 ! D21   D(1,3,4,11)          -119.9999         estimate D2E/DX2                !
 ! D22   D(1,3,4,16)            -0.0299         estimate D2E/DX2                !
 ! D23   D(1,3,4,17)           119.999          estimate D2E/DX2                !
 ! D24   D(2,3,4,11)           119.9995         estimate D2E/DX2                !
 ! D25   D(2,3,4,16)          -120.0306         estimate D2E/DX2                !
 ! D26   D(2,3,4,17)            -0.0016         estimate D2E/DX2                !
 ! D27   D(15,3,4,11)           -0.0057         estimate D2E/DX2                !
 ! D28   D(15,3,4,16)          119.9642         estimate D2E/DX2                !
 ! D29   D(15,3,4,17)         -120.0068         estimate D2E/DX2                !
 ! D30   D(3,4,11,12)          180.0            estimate D2E/DX2                !
 ! D31   D(3,4,11,25)          -60.0334         estimate D2E/DX2                !
 ! D32   D(3,4,11,26)           60.0004         estimate D2E/DX2                !
 ! D33   D(16,4,11,12)          60.0315         estimate D2E/DX2                !
 ! D34   D(16,4,11,25)         179.9981         estimate D2E/DX2                !
 ! D35   D(16,4,11,26)         -59.9682         estimate D2E/DX2                !
 ! D36   D(17,4,11,12)         -60.0004         estimate D2E/DX2                !
 ! D37   D(17,4,11,25)          59.9662         estimate D2E/DX2                !
 ! D38   D(17,4,11,26)        -180.0            estimate D2E/DX2                !
 ! D39   D(1,6,7,19)             0.0            estimate D2E/DX2                !
 ! D40   D(1,6,7,20)           119.9623         estimate D2E/DX2                !
 ! D41   D(1,6,7,21)          -120.0005         estimate D2E/DX2                !
 ! D42   D(18,6,7,19)          180.0            estimate D2E/DX2                !
 ! D43   D(18,6,7,20)          -60.0377         estimate D2E/DX2                !
 ! D44   D(18,6,7,21)           59.9995         estimate D2E/DX2                !
 ! D45   D(2,8,10,22)            0.0            estimate D2E/DX2                !
 ! D46   D(2,8,10,23)          119.9629         estimate D2E/DX2                !
 ! D47   D(2,8,10,24)         -120.0022         estimate D2E/DX2                !
 ! D48   D(9,8,10,22)          180.0            estimate D2E/DX2                !
 ! D49   D(9,8,10,23)          -60.0371         estimate D2E/DX2                !
 ! D50   D(9,8,10,24)           59.9978         estimate D2E/DX2                !
 ! D51   D(4,11,12,13)         179.9987         estimate D2E/DX2                !
 ! D52   D(4,11,12,27)         -60.0352         estimate D2E/DX2                !
 ! D53   D(4,11,12,28)          60.0016         estimate D2E/DX2                !
 ! D54   D(25,11,12,13)         60.0328         estimate D2E/DX2                !
 ! D55   D(25,11,12,27)        179.999          estimate D2E/DX2                !
 ! D56   D(25,11,12,28)        -59.9642         estimate D2E/DX2                !
 ! D57   D(26,11,12,13)        -60.0002         estimate D2E/DX2                !
 ! D58   D(26,11,12,27)         59.966          estimate D2E/DX2                !
 ! D59   D(26,11,12,28)       -179.9973         estimate D2E/DX2                !
 ! D60   D(11,12,13,29)       -179.9987         estimate D2E/DX2                !
 ! D61   D(11,12,13,30)        -60.0357         estimate D2E/DX2                !
 ! D62   D(11,12,13,31)         60.0021         estimate D2E/DX2                !
 ! D63   D(27,12,13,29)         60.0347         estimate D2E/DX2                !
 ! D64   D(27,12,13,30)        179.9977         estimate D2E/DX2                !
 ! D65   D(27,12,13,31)        -59.9645         estimate D2E/DX2                !
 ! D66   D(28,12,13,29)        -60.0047         estimate D2E/DX2                !
 ! D67   D(28,12,13,30)         59.9583         estimate D2E/DX2                !
 ! D68   D(28,12,13,31)        179.9961         estimate D2E/DX2                !
 --------------------------------------------------------------------------------
 Trust Radius=3.00D-01 FncErr=1.00D-07 GrdErr=1.00D-06
 Number of steps in this run=    162 maximum allowed number of steps=    186.
 GradGradGradGradGradGradGradGradGradGradGradGradGradGradGradGradGradGrad

                          Input orientation:                          
 ---------------------------------------------------------------------
 Center     Atomic      Atomic             Coordinates (Angstroms)
 Number     Number       Type             X           Y           Z
 ---------------------------------------------------------------------
      1          6           0        2.232800    0.169300    0.617800
      2          7           0        1.190400   -2.011100    0.617800
      3          6           0        0.926000   -0.585400    0.617800
      4          6           0        0.128300   -0.217700   -0.626400
      5          8           0        3.279000   -0.434600    0.617800
      6          7           0        2.232600    1.538300    0.617800
      7          6           0        3.488300    2.263400    0.617800
      8          6           0        0.149500   -2.900300    0.617800
      9          8           0        0.369800   -4.088000    0.617800
     10          6           0       -1.273000   -2.396700    0.617800
     11          6           0       -1.203100    0.395900   -0.213800
     12          6           0       -2.000800    0.763600   -1.458000
     13          7           0       -3.312100    1.367900   -1.051600
     14          1           0        2.144400   -2.348800    0.617800
     15          1           0        0.342500   -0.316400    1.526600
     16          1           0        0.703800    0.518200   -1.231400
     17          1           0       -0.057000   -1.133000   -1.232000
     18          1           0        1.356200    2.044200    0.617800
     19          1           0        4.334700    1.540600    0.617800
     20          1           0        3.547000    2.902600   -0.291500
     21          1           0        3.547000    2.903200    1.526600
     22          1           0       -1.273100   -1.283700    0.617800
     23          1           0       -1.797200   -2.767200   -0.291500
     24          1           0       -1.797700   -2.767600    1.526600
     25          1           0       -1.778600   -0.340100    0.391200
     26          1           0       -1.017800    1.311200    0.391800
     27          1           0       -1.425400    1.499500   -2.062900
     28          1           0       -2.186100   -0.151700   -2.063500
     29          1           0       -3.859500    1.620200   -1.905300
     30          1           0       -3.852500    0.676900   -0.483600
     31          1           0       -3.138100    2.227300   -0.483000
 ---------------------------------------------------------------------
                    Distance matrix (angstroms):
                    1          2          3          4          5
     1  C    0.000000
     2  N    2.416763   0.000000
     3  C    1.509072   1.450010   0.000000
     4  C    2.475222   2.427421   1.523011   0.000000
     5  O    1.207986   2.616792   2.357827   3.394406   0.000000
     6  N    1.369000   3.699246   2.493452   3.009925   2.233224
     7  C    2.441625   4.853009   3.831585   4.358152   2.706106
     8  C    3.709796   1.368996   2.441662   2.957165   3.984149
     9  O    4.647082   2.233136   3.546486   4.072540   4.670201
    10  C    4.344536   2.493397   2.848931   2.873972   4.956868
    11  C    3.542360   3.494860   2.487484   1.522948   4.633628
    12  C    4.752421   4.710803   3.833393   2.487484   5.798355
    13  N    5.913498   5.871716   4.956185   3.811991   7.034096
    14  H    2.519651   1.012007   2.143380   3.186578   2.225192
    15  H    2.152918   2.101633   1.112992   2.165879   3.076186
    16  H    2.424688   3.170754   2.164913   1.113002   3.310442
    17  H    3.218840   2.397671   2.165159   1.113042   3.877940
    18  H    2.069705   4.058688   2.664558   2.858665   3.137134
    19  H    2.509671   4.743542   4.017351   4.725828   2.239624
    20  H    3.166209   5.524929   4.456749   4.640683   3.469230
    21  H    3.166583   5.525380   4.457117   5.105187   3.469676
    22  H    3.795068   2.568646   2.307307   2.155994   4.630614
    23  H    5.068605   3.213140   3.605953   3.212423   5.660005
    24  H    5.069145   3.213557   3.606446   3.853164   5.660538
    25  H    4.049959   3.414462   2.725139   2.164892   5.063556
    26  H    3.452740   3.995610   2.725165   2.165135   4.643424
    27  H    4.726311   5.133505   4.130623   2.725122   5.749633
    28  H    5.178715   4.695476   4.130694   2.725080   6.093990
    29  H    6.751834   6.712217   5.842235   4.573403   7.845153
    30  H    6.204967   5.819731   5.063649   4.082581   7.301151
    31  H    5.856082   6.157248   5.063591   4.082641   7.033964
                    6          7          8          9         10
     6  N    0.000000
     7  C    1.450018   0.000000
     8  C    4.903109   6.149096   0.000000
     9  O    5.926658   7.075685   1.207958   0.000000
    10  C    5.270053   6.662320   1.509013   2.357814   0.000000
    11  C    3.714925   5.117455   3.658691   4.823995   2.914629
    12  C    4.778157   6.057109   4.728308   5.785042   3.850472
    13  N    5.793067   7.059338   5.743440   6.790444   4.595328
    14  H    3.888101   4.804004   2.069729   2.484758   3.417736
    15  H    2.799698   4.168614   2.745852   3.879643   2.786289
    16  H    2.607177   3.770770   3.925931   4.974754   3.977929
    17  H    3.974905   5.246565   2.566662   3.512256   2.548991
    18  H    1.011935   2.143338   5.089617   6.211027   5.160842
    19  H    2.102101   1.113029   6.102253   6.884880   6.851907
    20  H    2.101378   1.113036   6.785535   7.732394   7.220928
    21  H    2.101551   1.112972   6.785981   7.732878   7.221306
    22  H    4.500402   5.937411   2.153413   3.250111   1.113000
    23  H    5.966862   7.353249   2.152715   2.695780   1.113051
    24  H    5.967412   7.353820   2.152932   2.695817   1.113011
    25  H    4.435026   5.879608   3.213027   4.325936   2.129925
    26  H    3.266152   4.611149   4.376117   5.579236   3.723537
    27  H    4.535264   5.649260   5.387458   6.452058   4.731781
    28  H    5.437865   6.724648   4.494352   5.405225   3.614297
    29  H    6.594424   7.795505   6.547750   7.539003   5.402916
    30  H    6.243680   7.590613   5.479548   6.461050   4.161000
    31  H    5.525477   6.717309   6.189698   7.307540   5.106049
                   11         12         13         14         15
    11  C    0.000000
    12  C    1.523011   0.000000
    13  N    2.468719   1.499949   0.000000
    14  H    4.408026   5.583786   6.809857   0.000000
    15  H    2.434182   3.945287   4.779130   2.864160   0.000000
    16  H    2.164887   2.725148   4.108743   3.703317   2.904076
    17  H    2.165135   2.725165   4.108859   3.121873   2.904533
    18  H    3.155704   4.149498   5.003729   4.463150   2.725057
    19  H    5.715691   6.712022   7.828810   4.463726   4.495779
    20  H    5.371502   6.059218   7.069675   5.511018   4.892471
    21  H    5.646149   6.653105   7.486756   5.511507   4.542537
    22  H    1.875504   3.004984   3.738369   3.579629   2.090873
    23  H    3.219347   3.724074   4.468974   4.066706   3.726959
    24  H    3.659272   4.628008   5.103223   4.067120   3.254049
    25  H    1.113068   2.164964   2.711191   4.413179   2.405984
    26  H    1.113042   2.165159   2.711168   4.842126   2.405674
    27  H    2.164837   1.112896   2.144687   5.893983   4.394027
    28  H    2.165074   1.112987   2.144995   5.547058   4.394287
    29  H    3.378838   2.094900   1.045039   7.626651   5.760656
    30  H    2.677886   2.094222   1.045054   6.806670   4.756635
    31  H    2.677820   2.094396   1.045060   7.075115   4.756414
                   16         17         18         19         20
    16  H    0.000000
    17  H    1.818042   0.000000
    18  H    2.484722   3.938717   0.000000
    19  H    4.200985   5.464149   3.020774   0.000000
    20  H    3.827866   5.491760   2.522555   1.817235   0.000000
    21  H    4.623697   6.073681   2.522579   1.817434   1.818100
    22  H    3.251848   2.218867   4.241242   6.278861   6.448666
    23  H    4.234651   2.565823   5.824116   7.548786   7.791476
    24  H    4.965939   3.648538   5.824639   7.549360   8.001404
    25  H    3.087364   2.495471   3.945023   6.400064   6.272416
    26  H    2.495503   3.087714   2.494843   5.362178   4.882300
    27  H    2.487536   3.081066   3.901301   6.353471   5.461805
    28  H    3.081019   2.487450   4.955728   7.250799   6.733288
    29  H    4.742600   4.742621   5.809418   8.574222   7.687987
    30  H    4.619985   4.271026   5.496649   8.305980   7.729375
    31  H    4.270986   4.620151   4.630769   7.584593   6.721850
                   21         22         23         24         25
    21  H    0.000000
    22  H    6.448985   0.000000
    23  H    8.001212   1.817218   0.000000
    24  H    7.792547   1.817438   1.818100   0.000000
    25  H    6.337992   1.094193   2.521357   2.679973   0.000000
    26  H    4.965847   2.617205   4.208053   4.304953   1.818133
    27  H    6.291236   3.867241   4.634741   5.588494   3.087310
    28  H    7.422241   3.050305   3.183091   4.458992   2.495416
    29  H    8.263188   4.635530   5.109473   5.939844   3.666992
    30  H    7.984354   3.422037   4.015344   4.486389   2.469944
    31  H    7.013266   4.125180   5.174912   5.548350   3.033811
                   26         27         28         29         30
    26  H    0.000000
    27  H    2.495425   0.000000
    28  H    3.087637   1.818001   0.000000
    29  H    3.667071   2.442181   2.442319   0.000000
    30  H    3.033840   3.010261   2.441219   1.706193   0.000000
    31  H    2.469856   2.441131   3.010635   1.706437   1.707076
                   31
    31  H    0.000000
 Stoichiometry    C8H18N3O2(1+)
 Framework group  C1[X(C8H18N3O2)]
 Deg. of freedom    87
 Full point group                 C1      NOp   1
 Largest Abelian subgroup         C1      NOp   1
 Largest concise Abelian subgroup C1      NOp   1
                         Standard orientation:                         
 ---------------------------------------------------------------------
 Center     Atomic      Atomic             Coordinates (Angstroms)
 Number     Number       Type             X           Y           Z
 ---------------------------------------------------------------------
      1          6           0        1.983923   -0.226607   -0.062370
      2          7           0        0.639288    1.777899    0.058680
      3          6           0        0.612396    0.366578   -0.272947
      4          6           0       -0.391219   -0.345962    0.624051
      5          8           0        2.890131    0.470582    0.327431
      6          7           0        2.201090   -1.554813   -0.313103
      7          6           0        3.518972   -2.124716   -0.110744
      8          6           0       -0.498905    2.529860   -0.056302
      9          8           0       -0.476466    3.705585    0.219975
     10          6           0       -1.781473    1.889951   -0.528168
     11          6           0       -1.470264   -0.993050   -0.234033
     12          6           0       -2.473879   -1.705590    0.662965
     13          7           0       -3.536633   -2.342867   -0.182185
     14          1           0        1.499448    2.207016    0.375130
     15          1           0        0.313822    0.241431   -1.337815
     16          1           0        0.131987   -1.130450    1.215328
     17          1           0       -0.859043    0.390459    1.315200
     18          1           0        1.441963   -2.138861   -0.639641
     19          1           0        4.214926   -1.333427    0.247504
     20          1           0        3.458949   -2.936630    0.648231
     21          1           0        3.894395   -2.541292   -1.072113
     22          1           0       -1.604856    0.810122   -0.731997
     23          1           0       -2.560131    1.995627    0.260125
     24          1           0       -2.125323    2.391881   -1.460169
     25          1           0       -1.993486   -0.208466   -0.825292
     26          1           0       -1.002440   -1.729471   -0.925182
     27          1           0       -1.950745   -2.490066    1.254121
     28          1           0       -2.941679   -0.969147    1.354019
     29          1           0       -4.225317   -2.831783    0.433267
     30          1           0       -4.027950   -1.606265   -0.737308
     31          1           0       -3.097367   -3.034314   -0.831106
 ---------------------------------------------------------------------
 Rotational constants (GHZ):      0.7160942      0.5681344      0.3316992
 Standard basis: 6-31G(d) (6D, 7F)
 There are   231 symmetry adapted cartesian basis functions of A   symmetry.
 There are   231 symmetry adapted basis functions of A   symmetry.
   231 basis functions,   436 primitive gaussians,   231 cartesian basis functions
    51 alpha electrons       51 beta electrons
       nuclear repulsion energy       868.7147133002 Hartrees.
 NAtoms=   31 NActive=   31 NUniq=   31 SFac= 1.00D+00 NAtFMM=   60 NAOKFM=F Big=F
 Integral buffers will be    131072 words long.
 Raffenetti 2 integral format.
 Two-electron integral symmetry is turned on.
 Nuclear repulsion after empirical dispersion term =      868.6615798835 Hartrees.
 One-electron integrals computed using PRISM.
 NBasis=   231 RedAO= T EigKep=  1.47D-03  NBF=   231
 NBsUse=   231 1.00D-06 EigRej= -1.00D+00 NBFU=   231
 ExpMin= 1.61D-01 ExpMax= 5.48D+03 ExpMxC= 8.25D+02 IAcc=1 IRadAn=         1 AccDes= 0.00D+00
 Harris functional with IExCor=  402 and IRadAn=       1 diagonalized for initial guess.
 HarFok:  IExCor=  402 AccDes= 0.00D+00 IRadAn=         1 IDoV= 1 UseB2=F ITyADJ=14
 ICtDFT=  3500011 ScaDFX=  1.000000  1.000000  1.000000  1.000000
 FoFCou: FMM=F IPFlag=           0 FMFlag=      100000 FMFlg1=           0
         NFxFlg=           0 DoJE=T BraDBF=F KetDBF=T FulRan=T
         wScrn=  0.000000 ICntrl=     500 IOpCl=  0 I1Cent=   200000004 NGrid=           0
         NMat0=    1 NMatS0=      1 NMatT0=    0 NMatD0=    1 NMtDS0=    0 NMtDT0=    0
 Petite list used in FoFCou.
 Keep R1 ints in memory in canonical form, NReq=365451460.
 Requested convergence on RMS density matrix=1.00D-08 within 128 cycles.
 Requested convergence on MAX density matrix=1.00D-06.
 Requested convergence on             energy=1.00D-06.
 No special actions if energy rises.
 Integral accuracy reduced to 1.0D-05 until final iterations.
 EnCoef did     2 forward-backward iterations
 Initial convergence to 1.0D-05 achieved.  Increase integral accuracy.
 SCF Done:  E(RB3LYP) =  -630.150635071     A.U. after   17 cycles
            NFock= 17  Conv=0.46D-08     -V/T= 2.0090

 **********************************************************************

            Population analysis using the SCF density.

 **********************************************************************

 Orbital symmetries:
       Occupied  (A) (A) (A) (A) (A) (A) (A) (A) (A) (A) (A) (A)
                 (A) (A) (A) (A) (A) (A) (A) (A) (A) (A) (A) (A)
                 (A) (A) (A) (A) (A) (A) (A) (A) (A) (A) (A) (A)
                 (A) (A) (A) (A) (A) (A) (A) (A) (A) (A) (A) (A)
                 (A) (A) (A)
       Virtual   (A) (A) (A) (A) (A) (A) (A) (A) (A) (A) (A) (A)
                 (A) (A) (A) (A) (A) (A) (A) (A) (A) (A) (A) (A)
                 (A) (A) (A) (A) (A) (A) (A) (A) (A) (A) (A) (A)
                 (A) (A) (A) (A) (A) (A) (A) (A) (A) (A) (A) (A)
                 (A) (A) (A) (A) (A) (A) (A) (A) (A) (A) (A) (A)
                 (A) (A) (A) (A) (A) (A) (A) (A) (A) (A) (A) (A)
                 (A) (A) (A) (A) (A) (A) (A) (A) (A) (A) (A) (A)
                 (A) (A) (A) (A) (A) (A) (A) (A) (A) (A) (A) (A)
                 (A) (A) (A) (A) (A) (A) (A) (A) (A) (A) (A) (A)
                 (A) (A) (A) (A) (A) (A) (A) (A) (A) (A) (A) (A)
                 (A) (A) (A) (A) (A) (A) (A) (A) (A) (A) (A) (A)
                 (A) (A) (A) (A) (A) (A) (A) (A) (A) (A) (A) (A)
                 (A) (A) (A) (A) (A) (A) (A) (A) (A) (A) (A) (A)
                 (A) (A) (A) (A) (A) (A) (A) (A) (A) (A) (A) (A)
                 (A) (A) (A) (A) (A) (A) (A) (A) (A) (A) (A) (A)
 The electronic state is 1-A.
 Alpha  occ. eigenvalues --  -19.22125 -19.18922 -14.68194 -14.47237 -14.44628
 Alpha  occ. eigenvalues --  -10.44637 -10.39651 -10.37408 -10.37241 -10.35931
 Alpha  occ. eigenvalues --  -10.34317 -10.31489 -10.29787  -1.21562  -1.15607
 Alpha  occ. eigenvalues --   -1.12242  -1.03052  -1.02711  -0.98426  -0.90191
 Alpha  occ. eigenvalues --   -0.86357  -0.83021  -0.80780  -0.80321  -0.78141
 Alpha  occ. eigenvalues --   -0.75697  -0.70299  -0.69632  -0.68302  -0.67748
 Alpha  occ. eigenvalues --   -0.63047  -0.62257  -0.59896  -0.58367  -0.56084
 Alpha  occ. eigenvalues --   -0.55957  -0.54942  -0.54494  -0.53768  -0.52603
 Alpha  occ. eigenvalues --   -0.51653  -0.49460  -0.49171  -0.48196  -0.47252
 Alpha  occ. eigenvalues --   -0.46378  -0.45111  -0.36444  -0.35903  -0.33983
 Alpha  occ. eigenvalues --   -0.32917
 Alpha virt. eigenvalues --   -0.18473  -0.12333  -0.11962  -0.09830  -0.08799
 Alpha virt. eigenvalues --   -0.06548  -0.06407  -0.05399  -0.03980  -0.01553
 Alpha virt. eigenvalues --   -0.00780   0.00268   0.01320   0.02008   0.02126
 Alpha virt. eigenvalues --    0.04349   0.05791   0.06132   0.06870   0.07300
 Alpha virt. eigenvalues --    0.07797   0.08238   0.09136   0.10168   0.12507
 Alpha virt. eigenvalues --    0.15630   0.18409   0.20135   0.23292   0.24363
 Alpha virt. eigenvalues --    0.28543   0.31339   0.31817   0.34895   0.36015
 Alpha virt. eigenvalues --    0.37103   0.40727   0.42128   0.42254   0.43948
 Alpha virt. eigenvalues --    0.45062   0.46234   0.47373   0.47926   0.49652
 Alpha virt. eigenvalues --    0.52004   0.52058   0.53005   0.54095   0.54851
 Alpha virt. eigenvalues --    0.57575   0.58440   0.59585   0.60064   0.60182
 Alpha virt. eigenvalues --    0.61028   0.62171   0.63759   0.64350   0.66030
 Alpha virt. eigenvalues --    0.66381   0.67136   0.69478   0.70413   0.72133
 Alpha virt. eigenvalues --    0.73066   0.73097   0.73695   0.75585   0.76618
 Alpha virt. eigenvalues --    0.77000   0.77900   0.78791   0.79445   0.81224
 Alpha virt. eigenvalues --    0.81805   0.83596   0.83874   0.85248   0.86863
 Alpha virt. eigenvalues --    0.89283   0.92232   0.92958   0.96121   0.97936
 Alpha virt. eigenvalues --    0.99038   0.99909   1.03017   1.04299   1.10382
 Alpha virt. eigenvalues --    1.14484   1.17389   1.20444   1.22665   1.24674
 Alpha virt. eigenvalues --    1.25085   1.27256   1.29371   1.30816   1.35241
 Alpha virt. eigenvalues --    1.37473   1.38422   1.41338   1.41955   1.47906
 Alpha virt. eigenvalues --    1.49574   1.52026   1.57792   1.60881   1.64036
 Alpha virt. eigenvalues --    1.66800   1.67429   1.69438   1.71245   1.71607
 Alpha virt. eigenvalues --    1.72627   1.73874   1.73970   1.74579   1.75912
 Alpha virt. eigenvalues --    1.77150   1.77508   1.79967   1.81733   1.83738
 Alpha virt. eigenvalues --    1.84337   1.87639   1.89028   1.89919   1.92345
 Alpha virt. eigenvalues --    1.97131   1.98863   2.01235   2.01850   2.02682
 Alpha virt. eigenvalues --    2.04865   2.08054   2.10957   2.11503   2.12736
 Alpha virt. eigenvalues --    2.14518   2.15617   2.18206   2.19070   2.22188
 Alpha virt. eigenvalues --    2.24708   2.27283   2.31225   2.33878   2.36586
 Alpha virt. eigenvalues --    2.38752   2.39584   2.42851   2.47468   2.51547
 Alpha virt. eigenvalues --    2.55294   2.56166   2.57512   2.58312   2.64414
 Alpha virt. eigenvalues --    2.74030   2.76212   2.85095   2.91234   2.97408
 Alpha virt. eigenvalues --    3.00660   3.12526   3.52704   3.85418   3.90811
 Alpha virt. eigenvalues --    3.95659   3.99030   4.04197   4.10981   4.15435
 Alpha virt. eigenvalues --    4.20708   4.30418   4.40282   4.49249   4.56022
          Condensed to atoms (all electrons):
               1          2          3          4          5          6
     1  C    4.339752  -0.021852   0.284011  -0.012781   0.626992   0.268223
     2  N   -0.021852   7.167908   0.231600  -0.070201  -0.008849   0.003001
     3  C    0.284011   0.231600   5.230916   0.272390  -0.094865  -0.128924
     4  C   -0.012781  -0.070201   0.272390   5.281905   0.000760  -0.002993
     5  O    0.626992  -0.008849  -0.094865   0.000760   8.028136  -0.109992
     6  N    0.268223   0.003001  -0.128924  -0.002993  -0.109992   7.131281
     7  C   -0.026053  -0.000060   0.005197  -0.000079  -0.010935   0.253513
     8  C    0.003068   0.275590  -0.013882  -0.005844   0.000973  -0.000005
     9  O   -0.000103  -0.094846   0.003972  -0.000043  -0.000002   0.000000
    10  C    0.000366  -0.144321   0.009045  -0.005082  -0.000042  -0.000016
    11  C   -0.001612   0.001809  -0.021384   0.327163   0.000035  -0.000747
    12  C    0.000009  -0.000061   0.005020  -0.041639   0.000001   0.000020
    13  N    0.000000   0.000001  -0.000089   0.002712   0.000000   0.000000
    14  H    0.001477   0.285064  -0.044327   0.003630   0.025034   0.000997
    15  H   -0.026610  -0.043994   0.373016  -0.083541   0.000606   0.002497
    16  H   -0.006690   0.004955  -0.040550   0.354680  -0.000299   0.011215
    17  H    0.000758  -0.001961  -0.035319   0.379668  -0.000213   0.000287
    18  H   -0.021794  -0.000017   0.002480  -0.000651   0.004013   0.296161
    19  H   -0.004243  -0.000001   0.001234  -0.000028   0.020245  -0.033293
    20  H    0.001267   0.000001  -0.000071   0.000037   0.000659  -0.043906
    21  H    0.001390   0.000000  -0.000155  -0.000005   0.000671  -0.043036
    22  H    0.000457   0.007494  -0.005642  -0.001921   0.000008   0.000017
    23  H   -0.000009   0.002614   0.000110  -0.000342   0.000000   0.000000
    24  H   -0.000006   0.001931  -0.000265   0.000269   0.000000   0.000000
    25  H   -0.000061   0.001540  -0.005527  -0.053889  -0.000001  -0.000009
    26  H   -0.000102   0.000089  -0.004847  -0.031854  -0.000011   0.000440
    27  H   -0.000014   0.000002   0.000012  -0.000067   0.000000  -0.000006
    28  H    0.000000  -0.000017  -0.000100  -0.000408   0.000000   0.000000
    29  H    0.000000   0.000000   0.000002  -0.000105   0.000000   0.000000
    30  H    0.000000   0.000000   0.000000  -0.000069   0.000000   0.000000
    31  H    0.000000   0.000000  -0.000005  -0.000075   0.000000   0.000000
               7          8          9         10         11         12
     1  C   -0.026053   0.003068  -0.000103   0.000366  -0.001612   0.000009
     2  N   -0.000060   0.275590  -0.094846  -0.144321   0.001809  -0.000061
     3  C    0.005197  -0.013882   0.003972   0.009045  -0.021384   0.005020
     4  C   -0.000079  -0.005844  -0.000043  -0.005082   0.327163  -0.041639
     5  O   -0.010935   0.000973  -0.000002  -0.000042   0.000035   0.000001
     6  N    0.253513  -0.000005   0.000000  -0.000016  -0.000747   0.000020
     7  C    4.986888   0.000000   0.000000   0.000000   0.000022  -0.000001
     8  C    0.000000   4.267992   0.624890   0.303462   0.001898  -0.000031
     9  O    0.000000   0.624890   8.024641  -0.094694  -0.000044   0.000000
    10  C    0.000000   0.303462  -0.094694   5.507537  -0.048956   0.002226
    11  C    0.000022   0.001898  -0.000044  -0.048956   5.289812   0.309827
    12  C   -0.000001  -0.000031   0.000000   0.002226   0.309827   5.167335
    13  N    0.000000   0.000000   0.000000   0.000049  -0.051066   0.162467
    14  H   -0.000006  -0.003309   0.005486   0.006636  -0.000103   0.000004
    15  H   -0.000120  -0.002638   0.000044  -0.001724  -0.000402   0.000732
    16  H   -0.000382   0.000224  -0.000002   0.000235  -0.033902  -0.003442
    17  H    0.000000  -0.001656  -0.000387   0.001925  -0.040912  -0.005102
    18  H   -0.028193  -0.000010   0.000000   0.000012   0.000788  -0.000043
    19  H    0.376358   0.000000   0.000000   0.000000   0.000000   0.000000
    20  H    0.380081   0.000000   0.000000   0.000000   0.000002   0.000000
    21  H    0.382058   0.000000   0.000000   0.000000  -0.000001   0.000000
    22  H    0.000001  -0.012566   0.005872   0.272524  -0.096788   0.000580
    23  H    0.000000  -0.019535  -0.000965   0.374726   0.002475  -0.000372
    24  H    0.000000  -0.015858  -0.001125   0.368992   0.000797  -0.000009
    25  H    0.000000   0.000544  -0.000020  -0.039435   0.387510  -0.038831
    26  H    0.000009  -0.000111   0.000000   0.001862   0.357195  -0.040850
    27  H    0.000000   0.000003   0.000000  -0.000114  -0.034582   0.381444
    28  H    0.000000  -0.000051   0.000001   0.001274  -0.036524   0.379951
    29  H    0.000000   0.000000   0.000000   0.000000   0.003914  -0.017407
    30  H    0.000000   0.000001   0.000000  -0.000148  -0.000537  -0.020418
    31  H    0.000000   0.000000   0.000000   0.000005  -0.000405  -0.020146
              13         14         15         16         17         18
     1  C    0.000000   0.001477  -0.026610  -0.006690   0.000758  -0.021794
     2  N    0.000001   0.285064  -0.043994   0.004955  -0.001961  -0.000017
     3  C   -0.000089  -0.044327   0.373016  -0.040550  -0.035319   0.002480
     4  C    0.002712   0.003630  -0.083541   0.354680   0.379668  -0.000651
     5  O    0.000000   0.025034   0.000606  -0.000299  -0.000213   0.004013
     6  N    0.000000   0.000997   0.002497   0.011215   0.000287   0.296161
     7  C    0.000000  -0.000006  -0.000120  -0.000382   0.000000  -0.028193
     8  C    0.000000  -0.003309  -0.002638   0.000224  -0.001656  -0.000010
     9  O    0.000000   0.005486   0.000044  -0.000002  -0.000387   0.000000
    10  C    0.000049   0.006636  -0.001724   0.000235   0.001925   0.000012
    11  C   -0.051066  -0.000103  -0.000402  -0.033902  -0.040912   0.000788
    12  C    0.162467   0.000004   0.000732  -0.003442  -0.005102  -0.000043
    13  N    6.778147   0.000000   0.000002   0.000098   0.000065  -0.000001
    14  H    0.000000   0.343058   0.002894   0.000039   0.000212  -0.000044
    15  H    0.000002   0.002894   0.597040   0.005627   0.003651   0.000806
    16  H    0.000098   0.000039   0.005627   0.541210  -0.017151   0.000117
    17  H    0.000065   0.000212   0.003651  -0.017151   0.513017   0.000027
    18  H   -0.000001  -0.000044   0.000806   0.000117   0.000027   0.431711
    19  H    0.000000  -0.000024  -0.000027  -0.000041   0.000001   0.003643
    20  H    0.000000   0.000000  -0.000005  -0.000086  -0.000002  -0.000563
    21  H    0.000000   0.000000   0.000015   0.000023   0.000000  -0.001149
    22  H   -0.000024  -0.000301  -0.006654  -0.000095  -0.005064  -0.000007
    23  H   -0.000027  -0.000091  -0.000023  -0.000002   0.001426   0.000000
    24  H    0.000001  -0.000096   0.000707  -0.000010   0.000220   0.000000
    25  H   -0.000217  -0.000046   0.004264   0.005146  -0.003289   0.000032
    26  H   -0.002747  -0.000005   0.000163  -0.003877   0.004583   0.003176
    27  H   -0.031222   0.000000   0.000025   0.003889  -0.000289   0.000010
    28  H   -0.031291   0.000000  -0.000015  -0.000436   0.004149   0.000001
    29  H    0.297543   0.000000   0.000000   0.000003   0.000003   0.000000
    30  H    0.297244   0.000000  -0.000001   0.000005   0.000008   0.000000
    31  H    0.297782   0.000000  -0.000003  -0.000001   0.000013  -0.000001
              19         20         21         22         23         24
     1  C   -0.004243   0.001267   0.001390   0.000457  -0.000009  -0.000006
     2  N   -0.000001   0.000001   0.000000   0.007494   0.002614   0.001931
     3  C    0.001234  -0.000071  -0.000155  -0.005642   0.000110  -0.000265
     4  C   -0.000028   0.000037  -0.000005  -0.001921  -0.000342   0.000269
     5  O    0.020245   0.000659   0.000671   0.000008   0.000000   0.000000
     6  N   -0.033293  -0.043906  -0.043036   0.000017   0.000000   0.000000
     7  C    0.376358   0.380081   0.382058   0.000001   0.000000   0.000000
     8  C    0.000000   0.000000   0.000000  -0.012566  -0.019535  -0.015858
     9  O    0.000000   0.000000   0.000000   0.005872  -0.000965  -0.001125
    10  C    0.000000   0.000000   0.000000   0.272524   0.374726   0.368992
    11  C    0.000000   0.000002  -0.000001  -0.096788   0.002475   0.000797
    12  C    0.000000   0.000000   0.000000   0.000580  -0.000372  -0.000009
    13  N    0.000000   0.000000   0.000000  -0.000024  -0.000027   0.000001
    14  H   -0.000024   0.000000   0.000000  -0.000301  -0.000091  -0.000096
    15  H   -0.000027  -0.000005   0.000015  -0.006654  -0.000023   0.000707
    16  H   -0.000041  -0.000086   0.000023  -0.000095  -0.000002  -0.000010
    17  H    0.000001  -0.000002   0.000000  -0.005064   0.001426   0.000220
    18  H    0.003643  -0.000563  -0.001149  -0.000007   0.000000   0.000000
    19  H    0.448599  -0.022424  -0.021282   0.000000   0.000000   0.000000
    20  H   -0.022424   0.555642  -0.035047   0.000000   0.000000   0.000000
    21  H   -0.021282  -0.035047   0.542065   0.000000   0.000000   0.000000
    22  H    0.000000   0.000000   0.000000   0.887595  -0.052536  -0.031883
    23  H    0.000000   0.000000   0.000000  -0.052536   0.527557  -0.016254
    24  H    0.000000   0.000000   0.000000  -0.031883  -0.016254   0.483017
    25  H    0.000000   0.000000   0.000000  -0.020911   0.003151   0.002567
    26  H    0.000002  -0.000006   0.000002   0.005817   0.000031  -0.000053
    27  H    0.000000   0.000000   0.000000  -0.000315   0.000014   0.000000
    28  H    0.000000   0.000000   0.000000   0.001400   0.000573  -0.000029
    29  H    0.000000   0.000000   0.000000  -0.000012   0.000001   0.000000
    30  H    0.000000   0.000000   0.000000  -0.000512   0.000057   0.000009
    31  H    0.000000   0.000000   0.000000   0.000047   0.000000   0.000000
              25         26         27         28         29         30
     1  C   -0.000061  -0.000102  -0.000014   0.000000   0.000000   0.000000
     2  N    0.001540   0.000089   0.000002  -0.000017   0.000000   0.000000
     3  C   -0.005527  -0.004847   0.000012  -0.000100   0.000002   0.000000
     4  C   -0.053889  -0.031854  -0.000067  -0.000408  -0.000105  -0.000069
     5  O   -0.000001  -0.000011   0.000000   0.000000   0.000000   0.000000
     6  N   -0.000009   0.000440  -0.000006   0.000000   0.000000   0.000000
     7  C    0.000000   0.000009   0.000000   0.000000   0.000000   0.000000
     8  C    0.000544  -0.000111   0.000003  -0.000051   0.000000   0.000001
     9  O   -0.000020   0.000000   0.000000   0.000001   0.000000   0.000000
    10  C   -0.039435   0.001862  -0.000114   0.001274   0.000000  -0.000148
    11  C    0.387510   0.357195  -0.034582  -0.036524   0.003914  -0.000537
    12  C   -0.038831  -0.040850   0.381444   0.379951  -0.017407  -0.020418
    13  N   -0.000217  -0.002747  -0.031222  -0.031291   0.297543   0.297244
    14  H   -0.000046  -0.000005   0.000000   0.000000   0.000000   0.000000
    15  H    0.004264   0.000163   0.000025  -0.000015   0.000000  -0.000001
    16  H    0.005146  -0.003877   0.003889  -0.000436   0.000003   0.000005
    17  H   -0.003289   0.004583  -0.000289   0.004149   0.000003   0.000008
    18  H    0.000032   0.003176   0.000010   0.000001   0.000000   0.000000
    19  H    0.000000   0.000002   0.000000   0.000000   0.000000   0.000000
    20  H    0.000000  -0.000006   0.000000   0.000000   0.000000   0.000000
    21  H    0.000000   0.000002   0.000000   0.000000   0.000000   0.000000
    22  H   -0.020911   0.005817  -0.000315   0.001400  -0.000012  -0.000512
    23  H    0.003151   0.000031   0.000014   0.000573   0.000001   0.000057
    24  H    0.002567  -0.000053   0.000000  -0.000029   0.000000   0.000009
    25  H    0.574148  -0.031678   0.004305  -0.004842   0.000003   0.005902
    26  H   -0.031678   0.582513  -0.005300   0.004767  -0.000056  -0.000416
    27  H    0.004305  -0.005300   0.474313  -0.024363  -0.001646   0.003427
    28  H   -0.004842   0.004767  -0.024363   0.471179  -0.001839  -0.002732
    29  H    0.000003  -0.000056  -0.001646  -0.001839   0.303493  -0.011891
    30  H    0.005902  -0.000416   0.003427  -0.002732  -0.011891   0.304911
    31  H   -0.000482   0.005806  -0.002842   0.003483  -0.012291  -0.013123
              31
     1  C    0.000000
     2  N    0.000000
     3  C   -0.000005
     4  C   -0.000075
     5  O    0.000000
     6  N    0.000000
     7  C    0.000000
     8  C    0.000000
     9  O    0.000000
    10  C    0.000005
    11  C   -0.000405
    12  C   -0.020146
    13  N    0.297782
    14  H    0.000000
    15  H   -0.000003
    16  H   -0.000001
    17  H    0.000013
    18  H   -0.000001
    19  H    0.000000
    20  H    0.000000
    21  H    0.000000
    22  H    0.000047
    23  H    0.000000
    24  H    0.000000
    25  H   -0.000482
    26  H    0.005806
    27  H   -0.002842
    28  H    0.003483
    29  H   -0.012291
    30  H   -0.013123
    31  H    0.309463
 Mulliken charges:
               1
     1  C    0.594159
     2  N   -0.597418
     3  C   -0.023054
     4  C   -0.311595
     5  O   -0.482925
     6  N   -0.604728
     7  C   -0.318299
     8  C    0.596850
     9  O   -0.472676
    10  C   -0.516345
    11  C   -0.315278
    12  C   -0.221266
    13  N   -0.719426
    14  H    0.373819
    15  H    0.173666
    16  H    0.179499
    17  H    0.201332
    18  H    0.309497
    19  H    0.231281
    20  H    0.164421
    21  H    0.174451
    22  H    0.053419
    23  H    0.177421
    24  H    0.207080
    25  H    0.210126
    26  H    0.155458
    27  H    0.233312
    28  H    0.235869
    29  H    0.440287
    30  H    0.438284
    31  H    0.432778
 Sum of Mulliken charges =   1.00000
 Mulliken charges with hydrogens summed into heavy atoms:
               1
     1  C    0.594159
     2  N   -0.223599
     3  C    0.150612
     4  C    0.069236
     5  O   -0.482925
     6  N   -0.295231
     7  C    0.251854
     8  C    0.596850
     9  O   -0.472676
    10  C   -0.078425
    11  C    0.050306
    12  C    0.247916
    13  N    0.591922
 Electronic spatial extent (au):  <R**2>=           3275.4271
 Charge=              1.0000 electrons
 Dipole moment (field-independent basis, Debye):
    X=            -14.7372    Y=            -15.5565    Z=             -1.7191  Tot=             21.4975
 Quadrupole moment (field-independent basis, Debye-Ang):
   XX=            -20.7009   YY=            -63.2776   ZZ=            -73.3077
   XY=             28.1265   XZ=              0.6059   YZ=             -0.1478
 Traceless Quadrupole moment (field-independent basis, Debye-Ang):
   XX=             31.7279   YY=            -10.8489   ZZ=            -20.8790
   XY=             28.1265   XZ=              0.6059   YZ=             -0.1478
 Octapole moment (field-independent basis, Debye-Ang**2):
  XXX=           -210.8770  YYY=           -161.0874  ZZZ=             -0.2505  XYY=            -66.9148
  XXY=           -145.1339  XXZ=            -10.6991  XZZ=            -13.5388  YZZ=             -6.1225
  YYZ=            -13.0051  XYZ=              0.4602
 Hexadecapole moment (field-independent basis, Debye-Ang**3):
 XXXX=          -1312.0056 YYYY=          -1755.3434 ZZZZ=           -180.6320 XXXY=            426.6178
 XXXZ=             11.4093 YYYX=            305.4397 YYYZ=             -4.4595 ZZZX=              5.9051
 ZZZY=              5.1404 XXYY=           -267.6144 XXZZ=           -359.4881 YYZZ=           -282.3730
 XXYZ=             11.3601 YYXZ=             17.1021 ZZXY=             25.6955
 N-N= 8.686615798835D+02 E-N=-3.190183248671D+03  KE= 6.245062851257D+02
 Calling FoFJK, ICntrl=      2127 FMM=F ISym2X=0 I1Cent= 0 IOpClX= 0 NMat=1 NMatS=1 NMatT=0.
 ***** Axes restored to original set *****
 -------------------------------------------------------------------
 Center     Atomic                   Forces (Hartrees/Bohr)
 Number     Number              X              Y              Z
 -------------------------------------------------------------------
      1        6           0.009789035    0.015990545    0.008164456
      2        7          -0.015969354    0.018388056    0.004682872
      3        6           0.001007595   -0.011016390    0.006991466
      4        6          -0.007294686    0.009645217   -0.016834335
      5        8           0.021269278   -0.022051587   -0.000979519
      6        7          -0.013340428   -0.012706852   -0.001488634
      7        6           0.009606759    0.014392104   -0.000086215
      8        6           0.013672558   -0.013415221    0.002392573
      9        8           0.001706806   -0.025079275   -0.000829940
     10        6          -0.006049755    0.008271607    0.009329750
     11        6          -0.010366020    0.034423167   -0.011556126
     12        6           0.023413343   -0.008489913   -0.005024558
     13        7          -0.010068384    0.004564844   -0.007384795
     14        1           0.001494211    0.001193199    0.001786606
     15        1           0.006707680    0.001184378   -0.004666662
     16        1          -0.008209880   -0.009280504    0.001313546
     17        1           0.005358804    0.013555357    0.003605008
     18        1           0.003301375    0.001256339    0.001906665
     19        1          -0.014449713    0.008873441    0.000034061
     20        1           0.002380859   -0.005011583    0.009934370
     21        1           0.002008036   -0.005329957   -0.010025484
     22        1           0.000350273   -0.068664506    0.016052984
     23        1           0.004562387    0.002495149    0.010212418
     24        1           0.005784287    0.001121628   -0.011438278
     25        1          -0.005445926    0.044844590   -0.012616813
     26        1          -0.002672820   -0.006416167   -0.003156022
     27        1          -0.012899052   -0.006460669    0.003203266
     28        1          -0.003130426    0.013063543    0.004439692
     29        1           0.001306467   -0.000652530    0.015000534
     30        1           0.003625668    0.012698078   -0.006369444
     31        1          -0.007448979   -0.011386086   -0.006593441
 -------------------------------------------------------------------
 Cartesian Forces:  Max     0.068664506 RMS     0.013238529

 GradGradGradGradGradGradGradGradGradGradGradGradGradGradGradGradGradGrad
 Berny optimization.
 FormGI is forming the generalized inverse of G from B-inverse, IUseBI=4.
 Internal  Forces:  Max     0.244841513 RMS     0.036184512
 Search for a local minimum.
 Step number   1 out of a maximum of  162
 All quantities printed in internal units (Hartrees-Bohrs-Radians)
 Mixed Optimization -- RFO/linear search
 Second derivative matrix not updated -- first step.
 ITU=  0
     Eigenvalues ---    0.00370   0.00462   0.00462   0.00462   0.00646
     Eigenvalues ---    0.00647   0.01030   0.01030   0.01228   0.01229
     Eigenvalues ---    0.01459   0.01459   0.02102   0.02102   0.03977
     Eigenvalues ---    0.04013   0.04013   0.05025   0.05056   0.05058
     Eigenvalues ---    0.05058   0.05238   0.05805   0.05808   0.06408
     Eigenvalues ---    0.07469   0.07473   0.07682   0.07686   0.07752
     Eigenvalues ---    0.07777   0.07777   0.11752   0.11765   0.11765
     Eigenvalues ---    0.16000   0.16000   0.16000   0.16000   0.16000
     Eigenvalues ---    0.16000   0.16000   0.16000   0.16000   0.16000
     Eigenvalues ---    0.16000   0.16923   0.18059   0.21952   0.21952
     Eigenvalues ---    0.21952   0.22000   0.22000   0.25000   0.25000
     Eigenvalues ---    0.25000   0.25000   0.30078   0.30078   0.30084
     Eigenvalues ---    0.31444   0.31450   0.32277   0.32279   0.32280
     Eigenvalues ---    0.32280   0.32281   0.32281   0.32283   0.32284
     Eigenvalues ---    0.32284   0.32285   0.32286   0.32287   0.32295
     Eigenvalues ---    0.32383   0.38243   0.38244   0.40569   0.40570
     Eigenvalues ---    0.40572   0.45638   0.45650   0.51169   0.51170
     Eigenvalues ---    1.00911   1.00924
 RFO step:  Lambda=-3.58313714D-01 EMin= 3.69646039D-03
 Linear search not attempted -- first point.
 Maximum step size (   0.300) exceeded in Quadratic search.
    -- Step size scaled by   0.425
 Iteration  1 RMS(Cart)=  0.23991394 RMS(Int)=  0.01235406
 Iteration  2 RMS(Cart)=  0.07974626 RMS(Int)=  0.00106486
 Iteration  3 RMS(Cart)=  0.00243201 RMS(Int)=  0.00041903
 Iteration  4 RMS(Cart)=  0.00000331 RMS(Int)=  0.00041903
 Iteration  5 RMS(Cart)=  0.00000000 RMS(Int)=  0.00041903
 Variable       Old X    -DE/DX   Delta X   Delta X   Delta X     New X
                                 (Linear)    (Quad)   (Total)
    R1        2.85173   0.01552   0.00000   0.00981   0.00981   2.86154
    R2        2.28276   0.02944   0.00000   0.00915   0.00915   2.29192
    R3        2.58704   0.00152   0.00000   0.00074   0.00074   2.58778
    R4        2.74012   0.07544   0.00000   0.04330   0.04330   2.78342
    R5        2.58703   0.04663   0.00000   0.02279   0.02279   2.60982
    R6        1.91242   0.00101   0.00000   0.00053   0.00053   1.91294
    R7        2.87807   0.07377   0.00000   0.04759   0.04759   2.92566
    R8        2.10325  -0.00704   0.00000  -0.00439  -0.00439   2.09886
    R9        2.87795   0.04324   0.00000   0.02789   0.02789   2.90585
   R10        2.10327  -0.01110   0.00000  -0.00693  -0.00693   2.09634
   R11        2.10334  -0.01400   0.00000  -0.00874  -0.00874   2.09460
   R12        2.74014   0.00607   0.00000   0.00348   0.00348   2.74362
   R13        1.91228  -0.00222   0.00000  -0.00116  -0.00116   1.91112
   R14        2.10332  -0.01676   0.00000  -0.01046  -0.01046   2.09286
   R15        2.10333  -0.01086   0.00000  -0.00678  -0.00678   2.09655
   R16        2.10321  -0.01114   0.00000  -0.00695  -0.00695   2.09626
   R17        2.28271   0.02497   0.00000   0.00776   0.00776   2.29047
   R18        2.85162  -0.02335   0.00000  -0.01476  -0.01476   2.83686
   R19        2.10327  -0.06867   0.00000  -0.04286  -0.04286   2.06040
   R20        2.10336  -0.01133   0.00000  -0.00707  -0.00707   2.09629
   R21        2.10329  -0.01244   0.00000  -0.00777  -0.00777   2.09552
   R22        2.87807   0.00577   0.00000   0.00372   0.00372   2.88179
   R23        2.10339  -0.03369   0.00000  -0.02103  -0.02103   2.08236
   R24        2.10334  -0.00744   0.00000  -0.00465  -0.00465   2.09870
   R25        2.83449   0.01165   0.00000   0.00726   0.00726   2.84175
   R26        2.10307  -0.01269   0.00000  -0.00792  -0.00792   2.09515
   R27        2.10324  -0.01263   0.00000  -0.00788  -0.00788   2.09536
   R28        1.97484  -0.01309   0.00000  -0.00729  -0.00729   1.96755
   R29        1.97487  -0.01373   0.00000  -0.00764  -0.00764   1.96723
   R30        1.97488  -0.01420   0.00000  -0.00790  -0.00790   1.96697
    A1        2.09436   0.00094   0.00000   0.00066   0.00066   2.09502
    A2        2.09437  -0.02119   0.00000  -0.01481  -0.01481   2.07957
    A3        2.09445   0.02025   0.00000   0.01415   0.01415   2.10860
    A4        2.09439   0.24484   0.00000   0.18000   0.18000   2.27439
    A5        2.09438  -0.12398   0.00000  -0.09128  -0.09128   2.00310
    A6        2.09441  -0.12086   0.00000  -0.08872  -0.08873   2.00568
    A7        1.91115  -0.07552   0.00000  -0.06406  -0.06268   1.84847
    A8        1.91009  -0.04767   0.00000  -0.03997  -0.03832   1.87176
    A9        1.91041   0.01684   0.00000   0.00665   0.00634   1.91675
   A10        1.91016   0.10913   0.00000   0.08763   0.08623   1.99639
   A11        1.91053   0.00339   0.00000   0.00908   0.00726   1.91778
   A12        1.91146  -0.00621   0.00000   0.00063  -0.00107   1.91040
   A13        1.91117   0.10302   0.00000   0.07705   0.07699   1.98816
   A14        1.91014  -0.02533   0.00000  -0.01982  -0.01877   1.89137
   A15        1.91044  -0.03140   0.00000  -0.02019  -0.02160   1.88884
   A16        1.91018  -0.06184   0.00000  -0.05256  -0.05200   1.85819
   A17        1.91048   0.00229   0.00000   0.00979   0.00927   1.91975
   A18        1.91139   0.01331   0.00000   0.00575   0.00536   1.91675
   A19        2.09432   0.01122   0.00000   0.00825   0.00825   2.10257
   A20        2.09446  -0.00299   0.00000  -0.00198  -0.00198   2.09249
   A21        2.09440  -0.00823   0.00000  -0.00627  -0.00627   2.08813
   A22        1.91113  -0.00586   0.00000  -0.00491  -0.00491   1.90622
   A23        1.91012   0.00526   0.00000   0.00437   0.00437   1.91449
   A24        1.91043   0.00448   0.00000   0.00372   0.00371   1.91414
   A25        1.91011  -0.00041   0.00000  -0.00043  -0.00042   1.90968
   A26        1.91050  -0.00025   0.00000  -0.00032  -0.00032   1.91018
   A27        1.91152  -0.00321   0.00000  -0.00243  -0.00244   1.90908
   A28        2.09436  -0.04600   0.00000  -0.03215  -0.03217   2.06219
   A29        2.09437   0.09858   0.00000   0.06890   0.06888   2.16325
   A30        2.09445  -0.05258   0.00000  -0.03675  -0.03677   2.05768
   A31        1.91114   0.00051   0.00000   0.00056   0.00055   1.91169
   A32        1.91014   0.00319   0.00000   0.00301   0.00301   1.91315
   A33        1.91048  -0.00478   0.00000  -0.00446  -0.00447   1.90601
   A34        1.91010   0.00646   0.00000   0.00637   0.00636   1.91646
   A35        1.91049  -0.00398   0.00000  -0.00405  -0.00406   1.90643
   A36        1.91145  -0.00139   0.00000  -0.00143  -0.00143   1.91003
   A37        1.91117  -0.00910   0.00000  -0.00629  -0.00628   1.90489
   A38        1.91012   0.02736   0.00000   0.02532   0.02533   1.93545
   A39        1.91048  -0.00360   0.00000  -0.00364  -0.00366   1.90682
   A40        1.91015  -0.01173   0.00000  -0.01087  -0.01085   1.89929
   A41        1.91044   0.00418   0.00000   0.00203   0.00200   1.91244
   A42        1.91145  -0.00712   0.00000  -0.00655  -0.00660   1.90485
   A43        1.91115   0.00761   0.00000   0.00572   0.00572   1.91687
   A44        1.91015   0.00263   0.00000   0.00313   0.00314   1.91329
   A45        1.91038   0.00111   0.00000   0.00165   0.00167   1.91204
   A46        1.91014  -0.00608   0.00000  -0.00531  -0.00532   1.90481
   A47        1.91046  -0.00591   0.00000  -0.00527  -0.00528   1.90518
   A48        1.91153   0.00064   0.00000   0.00007   0.00005   1.91157
   A49        1.91119   0.00870   0.00000   0.00722   0.00720   1.91839
   A50        1.91021   0.00431   0.00000   0.00349   0.00348   1.91369
   A51        1.91045   0.00447   0.00000   0.00363   0.00362   1.91408
   A52        1.91004  -0.00603   0.00000  -0.00487  -0.00488   1.90515
   A53        1.91043  -0.00603   0.00000  -0.00486  -0.00488   1.90556
   A54        1.91147  -0.00542   0.00000  -0.00461  -0.00461   1.90686
    D1        0.00000   0.03106   0.00000   0.02378   0.02442   0.02442
    D2       -2.09380  -0.02720   0.00000  -0.01988  -0.02062  -2.11442
    D3        2.09445  -0.00072   0.00000  -0.00025  -0.00014   2.09430
    D4        3.14159   0.03086   0.00000   0.02355   0.02419  -3.11741
    D5        1.04779  -0.02740   0.00000  -0.02011  -0.02086   1.02694
    D6       -1.04715  -0.00092   0.00000  -0.00048  -0.00038  -1.04752
    D7        3.14159   0.00046   0.00000   0.00051   0.00051  -3.14108
    D8        0.00000   0.00115   0.00000   0.00130   0.00130   0.00130
    D9        0.00000   0.00025   0.00000   0.00028   0.00028   0.00028
   D10        3.14159   0.00095   0.00000   0.00107   0.00107  -3.14052
   D11        3.14159  -0.01579   0.00000  -0.02065  -0.01992   3.12168
   D12       -1.04784  -0.05353   0.00000  -0.05512  -0.05624  -1.10408
   D13        1.04722   0.00777   0.00000   0.00487   0.00526   1.05248
   D14        0.00000  -0.01091   0.00000  -0.01509  -0.01435  -0.01435
   D15        2.09376  -0.04865   0.00000  -0.04956  -0.05068   2.04307
   D16       -2.09437   0.01265   0.00000   0.01043   0.01082  -2.08355
   D17        3.14159  -0.01484   0.00000  -0.01645  -0.01644   3.12515
   D18        0.00000  -0.02527   0.00000  -0.02842  -0.02842  -0.02842
   D19        0.00000  -0.01972   0.00000  -0.02202  -0.02201  -0.02201
   D20        3.14159  -0.03016   0.00000  -0.03398  -0.03399   3.10760
   D21       -2.09439   0.03425   0.00000   0.04176   0.04123  -2.05316
   D22       -0.00052   0.00602   0.00000   0.01240   0.01191   0.01139
   D23        2.09438  -0.01240   0.00000  -0.00505  -0.00528   2.08909
   D24        2.09439   0.08913   0.00000   0.09104   0.09153   2.18592
   D25       -2.09493   0.06090   0.00000   0.06167   0.06221  -2.03272
   D26       -0.00003   0.04247   0.00000   0.04423   0.04501   0.04499
   D27       -0.00010   0.02186   0.00000   0.02579   0.02549   0.02539
   D28        2.09377  -0.00637   0.00000  -0.00357  -0.00383   2.08994
   D29       -2.09451  -0.02480   0.00000  -0.02102  -0.02102  -2.11554
   D30       -3.14159  -0.00987   0.00000  -0.01255  -0.01324   3.12835
   D31       -1.04778  -0.01305   0.00000  -0.01421  -0.01493  -1.06271
   D32        1.04720  -0.00721   0.00000  -0.00895  -0.00966   1.03755
   D33        1.04775  -0.00400   0.00000  -0.00323  -0.00286   1.04489
   D34        3.14156  -0.00717   0.00000  -0.00488  -0.00455   3.13701
   D35       -1.04664  -0.00134   0.00000   0.00037   0.00073  -1.04592
   D36       -1.04720   0.01617   0.00000   0.01592   0.01628  -1.03092
   D37        1.04661   0.01299   0.00000   0.01426   0.01460   1.06121
   D38        3.14159   0.01883   0.00000   0.01952   0.01987  -3.12172
   D39        0.00000   0.00025   0.00000   0.00030   0.00030   0.00030
   D40        2.09374  -0.00062   0.00000  -0.00055  -0.00056   2.09318
   D41       -2.09440   0.00140   0.00000   0.00143   0.00143  -2.09297
   D42        3.14159  -0.00045   0.00000  -0.00049  -0.00049   3.14110
   D43       -1.04786  -0.00132   0.00000  -0.00134  -0.00135  -1.04920
   D44        1.04719   0.00071   0.00000   0.00063   0.00064   1.04783
   D45        0.00000  -0.00644   0.00000  -0.00652  -0.00652  -0.00652
   D46        2.09375   0.00374   0.00000   0.00348   0.00348   2.09722
   D47       -2.09443   0.00106   0.00000   0.00084   0.00083  -2.09360
   D48        3.14159  -0.01687   0.00000  -0.01848  -0.01848   3.12311
   D49       -1.04785  -0.00669   0.00000  -0.00849  -0.00848  -1.05632
   D50        1.04716  -0.00937   0.00000  -0.01113  -0.01112   1.03603
   D51        3.14157   0.00907   0.00000   0.00881   0.00881  -3.13281
   D52       -1.04781   0.00789   0.00000   0.00773   0.00773  -1.04008
   D53        1.04723   0.01097   0.00000   0.01074   0.01074   1.05797
   D54        1.04777  -0.01168   0.00000  -0.01169  -0.01168   1.03609
   D55        3.14158  -0.01287   0.00000  -0.01277  -0.01276   3.12881
   D56       -1.04657  -0.00979   0.00000  -0.00976  -0.00975  -1.05632
   D57       -1.04720   0.00165   0.00000   0.00174   0.00173  -1.04547
   D58        1.04660   0.00047   0.00000   0.00066   0.00065   1.04725
   D59       -3.14155   0.00355   0.00000   0.00368   0.00366  -3.13788
   D60       -3.14157   0.00062   0.00000   0.00063   0.00063  -3.14094
   D61       -1.04782   0.00120   0.00000   0.00122   0.00122  -1.04660
   D62        1.04723  -0.00006   0.00000  -0.00006  -0.00007   1.04717
   D63        1.04780  -0.00353   0.00000  -0.00345  -0.00344   1.04437
   D64        3.14155  -0.00295   0.00000  -0.00286  -0.00284   3.13871
   D65       -1.04658  -0.00421   0.00000  -0.00414  -0.00413  -1.05071
   D66       -1.04728   0.00302   0.00000   0.00293   0.00292  -1.04436
   D67        1.04647   0.00360   0.00000   0.00352   0.00352   1.04999
   D68        3.14153   0.00234   0.00000   0.00224   0.00222  -3.13944
         Item               Value     Threshold  Converged?
 Maximum Force            0.244842     0.000450     NO 
 RMS     Force            0.036185     0.000300     NO 
 Maximum Displacement     1.475388     0.001800     NO 
 RMS     Displacement     0.313934     0.001200     NO 
 Predicted change in Energy=-1.415313D-01
 GradGradGradGradGradGradGradGradGradGradGradGradGradGradGradGradGradGrad

                          Input orientation:                          
 ---------------------------------------------------------------------
 Center     Atomic      Atomic             Coordinates (Angstroms)
 Number     Number       Type             X           Y           Z
 ---------------------------------------------------------------------
      1          6           0        2.162105    0.148440    0.595665
      2          7           0        1.159031   -2.013538    0.666198
      3          6           0        0.833879   -0.577119    0.644301
      4          6           0        0.018466   -0.125107   -0.591697
      5          8           0        3.197323   -0.482271    0.557160
      6          7           0        2.174548    1.517777    0.595613
      7          6           0        3.431689    2.242566    0.548955
      8          6           0        0.330238   -3.116351    0.731145
      9          8           0        0.839618   -4.216116    0.718693
     10          6           0       -1.165472   -3.036159    0.831315
     11          6           0       -1.288669    0.605797   -0.242807
     12          6           0       -1.991423    1.016603   -1.532356
     13          7           0       -3.266975    1.744310   -1.208631
     14          1           0        2.148415   -2.224982    0.632515
     15          1           0        0.286787   -0.299548    1.570165
     16          1           0        0.633813    0.591520   -1.173440
     17          1           0       -0.200521   -1.019623   -1.208521
     18          1           0        1.303007    2.029709    0.628962
     19          1           0        4.269028    1.518415    0.517202
     20          1           0        3.461670    2.881060   -0.357853
     21          1           0        3.528873    2.880138    1.451500
     22          1           0       -1.474011   -1.990577    0.850228
     23          1           0       -1.624966   -3.547942   -0.039038
     24          1           0       -1.495492   -3.531330    1.767027
     25          1           0       -1.961477   -0.047093    0.336271
     26          1           0       -1.053561    1.510281    0.357217
     27          1           0       -1.330467    1.685369   -2.119825
     28          1           0       -2.229408    0.113027   -2.129335
     29          1           0       -3.748265    2.024895   -2.088230
     30          1           0       -3.895091    1.122113   -0.659044
     31          1           0       -3.052392    2.595735   -0.649654
 ---------------------------------------------------------------------
                    Distance matrix (angstroms):
                    1          2          3          4          5
     1  C    0.000000
     2  N    2.384384   0.000000
     3  C    1.514261   1.472923   0.000000
     4  C    2.465734   2.539559   1.548193   0.000000
     5  O    1.212830   2.551726   2.366952   3.398907   0.000000
     6  N    1.369394   3.675112   2.487641   2.959301   2.246718
     7  C    2.449365   4.826297   3.835145   4.307790   2.734910
     8  C    3.746059   1.381055   2.590154   3.285522   3.897285
     9  O    4.562177   2.226236   3.639761   4.373530   4.418876
    10  C    4.611939   2.544864   3.174785   3.449768   5.062755
    11  C    3.580510   3.698437   2.586785   1.537708   4.684865
    12  C    4.746996   4.892929   3.906420   2.495595   5.791009
    13  N    5.939461   6.101306   5.063536   3.830072   7.061362
    14  H    2.373748   1.012286   2.107984   3.231849   2.035418
    15  H    2.160362   2.125025   1.110667   2.185423   3.087198
    16  H    2.379439   3.232097   2.170236   1.109338   3.274078
    17  H    3.193973   2.520083   2.167659   1.108417   3.866746
    18  H    2.068412   4.045981   2.648749   2.789853   3.147004
    19  H    2.514381   4.708394   4.025875   4.690212   2.269998
    20  H    3.172582   5.505263   4.457421   4.576830   3.495586
    21  H    3.172173   5.493716   4.457263   5.052633   3.495077
    22  H    4.226291   2.639565   2.714152   2.790450   4.917544
    23  H    5.329915   3.256131   3.916459   3.836939   5.745281
    24  H    5.318911   3.249925   3.926047   4.411123   5.725649
    25  H    4.136357   3.703151   2.861787   2.188010   5.181833
    26  H    3.500282   4.172330   2.828796   2.173516   4.698963
    27  H    4.683384   5.257512   4.176558   2.726283   5.689094
    28  H    5.168392   4.880451   4.189641   2.733858   6.084493
    29  H    6.756985   6.926569   5.935760   4.588069   7.843797
    30  H    6.261945   6.093662   5.191267   4.108044   7.372621
    31  H    5.893305   6.380670   5.181161   4.103232   7.070323
                    6          7          8          9         10
     6  N    0.000000
     7  C    1.451861   0.000000
     8  C    4.989489   6.194368   0.000000
     9  O    5.888524   6.961481   1.212066   0.000000
    10  C    5.652400   7.005609   1.501204   2.329242   0.000000
    11  C    3.678114   5.058427   4.174186   5.357698   3.799047
    12  C    4.704757   5.936749   5.253080   6.361081   4.763823
    13  N    5.737315   6.943304   6.350488   7.490351   5.606298
    14  H    3.743032   4.648952   2.027323   2.384322   3.417511
    15  H    2.795722   4.170806   2.939426   4.046002   3.184965
    16  H    2.522175   3.677052   4.179463   5.170675   4.518465
    17  H    3.915898   5.188791   2.905216   3.874740   3.026298
    18  H    1.011320   2.140794   5.238192   6.263634   5.638915
    19  H    2.095948   1.107492   6.086123   6.684780   7.097648
    20  H    2.103407   1.109448   6.852790   7.642252   7.605133
    21  H    2.103037   1.109293   6.834330   7.624035   7.577868
    22  H    5.068072   6.486614   2.129991   3.212974   1.090319
    23  H    6.364008   7.710089   2.145290   2.663604   1.109310
    24  H    6.350975   7.687567   2.139754   2.649656   1.108902
    25  H    4.429761   5.862936   3.850744   5.037175   3.132604
    26  H    3.236908   4.548678   4.843599   6.042054   4.572462
    27  H    4.436983   5.487348   5.826018   6.898838   5.570393
    28  H    5.365958   6.614847   5.016275   6.022596   4.451380
    29  H    6.522261   7.652050   7.142511   8.238792   6.388179
    30  H    6.210574   7.509752   6.144152   7.267208   5.192612
    31  H    5.480290   6.603386   6.780614   7.963757   6.121435
                   11         12         13         14         15
    11  C    0.000000
    12  C    1.524980   0.000000
    13  N    2.478452   1.503792   0.000000
    14  H    4.537956   5.686193   6.962151   0.000000
    15  H    2.566822   4.067939   4.952604   2.837630   0.000000
    16  H    2.135934   2.683538   4.067715   3.672625   2.905477
    17  H    2.181435   2.731009   4.128252   3.218665   2.911542
    18  H    3.082903   4.068286   4.933856   4.337870   2.709982
    19  H    5.683175   6.606493   7.734395   4.303872   4.502440
    20  H    5.268375   5.881486   6.876822   5.364432   4.890133
    21  H    5.590349   6.545977   7.385794   5.351509   4.542643
    22  H    2.823160   3.871376   4.626338   3.636525   2.545250
    23  H    4.172309   4.816571   5.663221   4.054579   4.098340
    24  H    4.604131   5.640529   6.310710   4.033822   3.695902
    25  H    1.101938   2.150375   2.701883   4.660705   2.576998
    26  H    1.110583   2.166516   2.721370   4.927538   2.557979
    27  H    2.165738   1.108707   2.140984   5.913445   4.491261
    28  H    2.164903   1.108815   2.141337   5.679740   4.493079
    29  H    3.386597   2.100510   1.041183   7.761104   5.921869
    30  H    2.689474   2.097084   1.041011   7.028167   4.947584
    31  H    2.690000   2.097255   1.040878   7.206363   4.945743
                   16         17         18         19         20
    16  H    0.000000
    17  H    1.814697   0.000000
    18  H    2.401012   3.864630   0.000000
    19  H    4.114875   5.421865   3.011842   0.000000
    20  H    3.728800   5.417620   2.521592   1.809517   0.000000
    21  H    4.528736   6.015998   2.520769   1.809706   1.810601
    22  H    3.899407   2.608252   4.891164   6.738429   7.039407
    23  H    4.850164   3.128758   6.334780   7.792081   8.204119
    24  H    5.493466   4.103597   6.328661   7.764772   8.378981
    25  H    3.069623   2.536368   3.880159   6.426722   6.202130
    26  H    2.456473   3.095098   2.428387   5.324999   4.772595
[...]
 Alpha virt. eigenvalues --    0.41638   0.44964   0.45730   0.47745   0.48651
 Alpha virt. eigenvalues --    0.49626   0.50323   0.52554   0.53379   0.54389
 Alpha virt. eigenvalues --    0.56186   0.57025   0.57882   0.58579   0.60054
 Alpha virt. eigenvalues --    0.61862   0.62620   0.63626   0.64600   0.66123
 Alpha virt. eigenvalues --    0.68093   0.68313   0.69108   0.70749   0.72907
 Alpha virt. eigenvalues --    0.73598   0.74071   0.74700   0.75768   0.76280
 Alpha virt. eigenvalues --    0.76781   0.77703   0.78782   0.79403   0.80529
 Alpha virt. eigenvalues --    0.80751   0.82386   0.83012   0.83563   0.83827
 Alpha virt. eigenvalues --    0.87540   0.87669   0.88926   0.92588   0.93027
 Alpha virt. eigenvalues --    0.95456   0.97452   1.00554   1.03328   1.03457
 Alpha virt. eigenvalues --    1.14586   1.16295   1.17893   1.21973   1.23031
 Alpha virt. eigenvalues --    1.25359   1.28195   1.30147   1.31320   1.33318
 Alpha virt. eigenvalues --    1.34569   1.37122   1.39644   1.42097   1.46131
 Alpha virt. eigenvalues --    1.49326   1.52447   1.53539   1.54535   1.56273
 Alpha virt. eigenvalues --    1.60612   1.61679   1.64880   1.66469   1.67258
 Alpha virt. eigenvalues --    1.69515   1.70712   1.70935   1.71822   1.73904
 Alpha virt. eigenvalues --    1.76895   1.78534   1.81711   1.81809   1.82689
 Alpha virt. eigenvalues --    1.85381   1.85664   1.86503   1.90023   1.90887
 Alpha virt. eigenvalues --    1.92970   1.95948   1.98859   1.99135   2.04534
 Alpha virt. eigenvalues --    2.06042   2.08210   2.10000   2.13204   2.15479
 Alpha virt. eigenvalues --    2.16312   2.16505   2.19182   2.20970   2.21076
 Alpha virt. eigenvalues --    2.23873   2.26128   2.28592   2.32067   2.33085
 Alpha virt. eigenvalues --    2.34644   2.42176   2.43436   2.47463   2.48998
 Alpha virt. eigenvalues --    2.52018   2.52334   2.53744   2.55789   2.57310
 Alpha virt. eigenvalues --    2.61330   2.72711   2.81428   2.87031   2.88722
 Alpha virt. eigenvalues --    2.98086   3.03907   3.66816   3.78735   3.90161
 Alpha virt. eigenvalues --    3.91051   3.98179   4.06954   4.09384   4.14310
 Alpha virt. eigenvalues --    4.19668   4.27783   4.37794   4.38131   4.56861
          Condensed to atoms (all electrons):
               1          2          3          4          5          6
     1  C    4.417413  -0.052297   0.323005  -0.029159   0.424721   0.400275
     2  N   -0.052297   7.278329   0.193202  -0.029141   0.002932  -0.019415
     3  C    0.323005   0.193202   5.133169   0.316373  -0.066157  -0.086840
     4  C   -0.029159  -0.029141   0.316373   5.097661   0.005722  -0.002858
     5  O    0.424721   0.002932  -0.066157   0.005722   8.250839  -0.080189
     6  N    0.400275  -0.019415  -0.086840  -0.002858  -0.080189   6.900755
     7  C   -0.029295   0.000134   0.005782  -0.000091  -0.005298   0.246492
     8  C   -0.000540   0.226891  -0.015895   0.002204   0.000046   0.000826
     9  O   -0.000047  -0.096891   0.003223  -0.000078   0.000000   0.000001
    10  C   -0.000149  -0.134992   0.000448  -0.000002  -0.000027  -0.001634
    11  C   -0.000870   0.001992  -0.024632   0.355869  -0.002058   0.000071
    12  C    0.001178   0.000014  -0.003623  -0.036830   0.005715   0.000000
    13  N    0.008755  -0.000009   0.001417  -0.000415  -0.095762  -0.000146
    14  H    0.000789   0.278626  -0.031735  -0.004235  -0.000037  -0.000039
    15  H   -0.052579  -0.040061   0.370533  -0.043876   0.002060   0.001575
    16  H   -0.004541  -0.000160  -0.036022   0.367847  -0.000316   0.001505
    17  H    0.004179  -0.001042  -0.044318   0.377559   0.000060  -0.000047
    18  H   -0.030216   0.032335  -0.011655   0.000664   0.003073   0.298252
    19  H   -0.003213  -0.000075   0.000532  -0.000015   0.013013  -0.034397
    20  H    0.001323   0.000016  -0.000133  -0.000005   0.000387  -0.035586
    21  H    0.001020   0.000001  -0.000220   0.000031   0.000419  -0.036438
    22  H    0.002504   0.002968  -0.000470   0.000252  -0.000233   0.003012
    23  H    0.000076   0.001845  -0.002009   0.000039  -0.000011   0.000074
    24  H    0.000005   0.004428   0.000144  -0.000005   0.000000   0.000014
    25  H   -0.000122  -0.000126   0.003807  -0.029224   0.000002   0.000001
    26  H    0.000142   0.000168  -0.006509  -0.039369   0.000028  -0.000003
    27  H    0.000202  -0.000002  -0.000414  -0.004226   0.001826  -0.000014
    28  H   -0.000004   0.000001  -0.000045   0.003698   0.000020   0.000000
    29  H   -0.000039   0.000000  -0.000024  -0.000114   0.001611   0.000002
    30  H   -0.000226  -0.000001  -0.000059  -0.000234   0.001667   0.000004
    31  H   -0.018374   0.000111  -0.002087   0.002126   0.137316   0.002115
               7          8          9         10         11         12
     1  C   -0.029295  -0.000540  -0.000047  -0.000149  -0.000870   0.001178
     2  N    0.000134   0.226891  -0.096891  -0.134992   0.001992   0.000014
     3  C    0.005782  -0.015895   0.003223   0.000448  -0.024632  -0.003623
     4  C   -0.000091   0.002204  -0.000078  -0.000002   0.355869  -0.036830
     5  O   -0.005298   0.000046   0.000000  -0.000027  -0.002058   0.005715
     6  N    0.246492   0.000826   0.000001  -0.001634   0.000071   0.000000
     7  C    4.990325  -0.000056   0.000000  -0.000011   0.000001   0.000001
     8  C   -0.000056   4.322172   0.628951   0.334377  -0.000062   0.000002
     9  O    0.000000   0.628951   7.972991  -0.080383   0.000000   0.000000
    10  C   -0.000011   0.334377  -0.080383   5.363881   0.000019   0.000000
    11  C    0.000001  -0.000062   0.000000   0.000019   5.031283   0.363071
    12  C    0.000001   0.000002   0.000000   0.000000   0.363071   5.021936
    13  N   -0.000001   0.000000   0.000000   0.000000  -0.047145   0.207419
    14  H    0.000005  -0.003769   0.010969   0.008315   0.000176  -0.000001
    15  H   -0.000114  -0.006072   0.000142   0.006769  -0.002592  -0.001130
    16  H   -0.000078  -0.000121   0.000002  -0.000001  -0.034376  -0.006917
    17  H    0.000005   0.000100  -0.000098  -0.000042  -0.028663   0.004470
    18  H   -0.024711   0.002109  -0.000368   0.000003  -0.000008  -0.000002
    19  H    0.381405  -0.000002   0.000000   0.000000   0.000000  -0.000001
    20  H    0.382861  -0.000009   0.000000   0.000030   0.000000   0.000000
    21  H    0.383059   0.000004   0.000000  -0.000001   0.000000   0.000000
    22  H   -0.000060  -0.020334   0.001887   0.342874  -0.000007   0.000000
    23  H    0.000000  -0.019518   0.000577   0.350382  -0.000006   0.000001
    24  H    0.000000  -0.020864   0.003921   0.364107   0.000000   0.000000
    25  H    0.000000   0.000001   0.000000   0.000000   0.379228  -0.033456
    26  H    0.000000  -0.000004   0.000000  -0.000014   0.373324  -0.041393
    27  H    0.000001   0.000000   0.000000   0.000000  -0.033349   0.381017
    28  H    0.000000   0.000000   0.000000   0.000000  -0.031450   0.386745
    29  H    0.000000   0.000000   0.000000   0.000000   0.003690  -0.018731
    30  H    0.000000   0.000000   0.000000  -0.000001  -0.001640  -0.022016
    31  H    0.000012   0.000000   0.000000  -0.000004  -0.002170  -0.015029
              13         14         15         16         17         18
     1  C    0.008755   0.000789  -0.052579  -0.004541   0.004179  -0.030216
     2  N   -0.000009   0.278626  -0.040061  -0.000160  -0.001042   0.032335
     3  C    0.001417  -0.031735   0.370533  -0.036022  -0.044318  -0.011655
     4  C   -0.000415  -0.004235  -0.043876   0.367847   0.377559   0.000664
     5  O   -0.095762  -0.000037   0.002060  -0.000316   0.000060   0.003073
     6  N   -0.000146  -0.000039   0.001575   0.001505  -0.000047   0.298252
     7  C   -0.000001   0.000005  -0.000114  -0.000078   0.000005  -0.024711
     8  C    0.000000  -0.003769  -0.006072  -0.000121   0.000100   0.002109
     9  O    0.000000   0.010969   0.000142   0.000002  -0.000098  -0.000368
    10  C    0.000000   0.008315   0.006769  -0.000001  -0.000042   0.000003
    11  C   -0.047145   0.000176  -0.002592  -0.034376  -0.028663  -0.000008
    12  C    0.207419  -0.000001  -0.001130  -0.006917   0.004470  -0.000002
    13  N    7.016083   0.000000  -0.000429  -0.000095  -0.000065   0.000007
    14  H    0.000000   0.383566   0.003749   0.001046   0.003967   0.000334
    15  H   -0.000429   0.003749   0.581656   0.004858  -0.000653   0.001019
    16  H   -0.000095   0.001046   0.004858   0.544127  -0.027729   0.000062
    17  H   -0.000065   0.003967  -0.000653  -0.027729   0.527354  -0.000095
    18  H    0.000007   0.000334   0.001019   0.000062  -0.000095   0.352472
    19  H    0.000024   0.000001  -0.000016  -0.000003   0.000000   0.002714
    20  H    0.000000   0.000001   0.000019   0.000001   0.000000  -0.000688
    21  H    0.000000  -0.000001  -0.000005  -0.000004   0.000000  -0.000834
    22  H    0.000000  -0.000230  -0.001764  -0.000001   0.000002  -0.000289
    23  H   -0.000001  -0.000290   0.003882  -0.000002   0.000009   0.000018
    24  H    0.000000  -0.000148  -0.000113   0.000000   0.000001  -0.000008
    25  H    0.003707  -0.000016   0.000230  -0.000704  -0.007379   0.000001
    26  H   -0.005112   0.000037   0.005492   0.004624  -0.001029   0.000000
    27  H   -0.035789   0.000000   0.000105   0.004785   0.000081  -0.000001
    28  H   -0.035925   0.000000  -0.000033   0.000025  -0.000123   0.000000
    29  H    0.303680   0.000000   0.000023  -0.000005   0.000003   0.000000
    30  H    0.298643   0.000000   0.000700   0.000062   0.000001   0.000000
    31  H    0.146100  -0.000001   0.002248   0.000195  -0.000102  -0.000062
              19         20         21         22         23         24
     1  C   -0.003213   0.001323   0.001020   0.002504   0.000076   0.000005
     2  N   -0.000075   0.000016   0.000001   0.002968   0.001845   0.004428
     3  C    0.000532  -0.000133  -0.000220  -0.000470  -0.002009   0.000144
     4  C   -0.000015  -0.000005   0.000031   0.000252   0.000039  -0.000005
     5  O    0.013013   0.000387   0.000419  -0.000233  -0.000011   0.000000
     6  N   -0.034397  -0.035586  -0.036438   0.003012   0.000074   0.000014
     7  C    0.381405   0.382861   0.383059  -0.000060   0.000000   0.000000
     8  C   -0.000002  -0.000009   0.000004  -0.020334  -0.019518  -0.020864
     9  O    0.000000   0.000000   0.000000   0.001887   0.000577   0.003921
    10  C    0.000000   0.000030  -0.000001   0.342874   0.350382   0.364107
    11  C    0.000000   0.000000   0.000000  -0.000007  -0.000006   0.000000
    12  C   -0.000001   0.000000   0.000000   0.000000   0.000001   0.000000
    13  N    0.000024   0.000000   0.000000   0.000000  -0.000001   0.000000
    14  H    0.000001   0.000001  -0.000001  -0.000230  -0.000290  -0.000148
    15  H   -0.000016   0.000019  -0.000005  -0.001764   0.003882  -0.000113
    16  H   -0.000003   0.000001  -0.000004  -0.000001  -0.000002   0.000000
    17  H    0.000000   0.000000   0.000000   0.000002   0.000009   0.000001
    18  H    0.002714  -0.000688  -0.000834  -0.000289   0.000018  -0.000008
    19  H    0.473137  -0.022670  -0.023777  -0.000006   0.000000   0.000000
    20  H   -0.022670   0.504131  -0.030283  -0.000039   0.000000   0.000000
    21  H   -0.023777  -0.030283   0.507813   0.000006   0.000000   0.000000
    22  H   -0.000006  -0.000039   0.000006   0.553631  -0.029222  -0.019334
    23  H    0.000000   0.000000   0.000000  -0.029222   0.531193  -0.017677
    24  H    0.000000   0.000000   0.000000  -0.019334  -0.017677   0.462095
    25  H    0.000000   0.000000   0.000000   0.000000   0.000000   0.000000
    26  H    0.000000   0.000000   0.000000   0.000000  -0.000006   0.000000
    27  H   -0.000001   0.000000   0.000000   0.000000   0.000000   0.000000
    28  H    0.000000   0.000000   0.000000   0.000000   0.000000   0.000000
    29  H   -0.000001   0.000000   0.000000   0.000000   0.000000   0.000000
    30  H    0.000000   0.000000   0.000000   0.000000   0.000001   0.000000
    31  H   -0.000133   0.000001  -0.000003  -0.000002  -0.000004   0.000000
              25         26         27         28         29         30
     1  C   -0.000122   0.000142   0.000202  -0.000004  -0.000039  -0.000226
     2  N   -0.000126   0.000168  -0.000002   0.000001   0.000000  -0.000001
     3  C    0.003807  -0.006509  -0.000414  -0.000045  -0.000024  -0.000059
     4  C   -0.029224  -0.039369  -0.004226   0.003698  -0.000114  -0.000234
     5  O    0.000002   0.000028   0.001826   0.000020   0.001611   0.001667
     6  N    0.000001  -0.000003  -0.000014   0.000000   0.000002   0.000004
     7  C    0.000000   0.000000   0.000001   0.000000   0.000000   0.000000
     8  C    0.000001  -0.000004   0.000000   0.000000   0.000000   0.000000
     9  O    0.000000   0.000000   0.000000   0.000000   0.000000   0.000000
    10  C    0.000000  -0.000014   0.000000   0.000000   0.000000  -0.000001
    11  C    0.379228   0.373324  -0.033349  -0.031450   0.003690  -0.001640
    12  C   -0.033456  -0.041393   0.381017   0.386745  -0.018731  -0.022016
    13  N    0.003707  -0.005112  -0.035789  -0.035925   0.303680   0.298643
    14  H   -0.000016   0.000037   0.000000   0.000000   0.000000   0.000000
    15  H    0.000230   0.005492   0.000105  -0.000033   0.000023   0.000700
    16  H   -0.000704   0.004624   0.004785   0.000025  -0.000005   0.000062
    17  H   -0.007379  -0.001029   0.000081  -0.000123   0.000003   0.000001
    18  H    0.000001   0.000000  -0.000001   0.000000   0.000000   0.000000
    19  H    0.000000   0.000000  -0.000001   0.000000  -0.000001   0.000000
    20  H    0.000000   0.000000   0.000000   0.000000   0.000000   0.000000
    21  H    0.000000   0.000000   0.000000   0.000000   0.000000   0.000000
    22  H    0.000000   0.000000   0.000000   0.000000   0.000000   0.000000
    23  H    0.000000  -0.000006   0.000000   0.000000   0.000000   0.000001
    24  H    0.000000   0.000000   0.000000   0.000000   0.000000   0.000000
    25  H    0.508014  -0.025625  -0.000687  -0.004472  -0.000126  -0.000051
    26  H   -0.025625   0.558267   0.004414  -0.001556   0.000010   0.005137
    27  H   -0.000687   0.004414   0.492894  -0.027203  -0.001772   0.004236
    28  H   -0.004472  -0.001556  -0.027203   0.496461  -0.002351  -0.002593
    29  H   -0.000126   0.000010  -0.001772  -0.002351   0.327073  -0.015893
    30  H   -0.000051   0.005137   0.004236  -0.002593  -0.015893   0.344738
    31  H    0.000053  -0.000442  -0.003531   0.002518  -0.005710  -0.006102
              31
     1  C   -0.018374
     2  N    0.000111
     3  C   -0.002087
     4  C    0.002126
     5  O    0.137316
     6  N    0.002115
     7  C    0.000012
     8  C    0.000000
     9  O    0.000000
    10  C   -0.000004
    11  C   -0.002170
    12  C   -0.015029
    13  N    0.146100
    14  H   -0.000001
    15  H    0.002248
    16  H    0.000195
    17  H   -0.000102
    18  H   -0.000062
    19  H   -0.000133
    20  H    0.000001
    21  H   -0.000003
    22  H   -0.000002
    23  H   -0.000004
    24  H    0.000000
    25  H    0.000053
    26  H   -0.000442
    27  H   -0.003531
    28  H    0.002518
    29  H   -0.005710
    30  H   -0.006102
    31  H    0.302299
 Mulliken charges:
               1
     1  C    0.636082
     2  N   -0.649781
     3  C   -0.018788
     4  C   -0.310170
     5  O   -0.601368
     6  N   -0.557367
     7  C   -0.330368
     8  C    0.569564
     9  O   -0.444800
    10  C   -0.553945
    11  C   -0.299695
    12  C   -0.192441
    13  N   -0.764941
    14  H    0.348923
    15  H    0.164376
    16  H    0.181936
    17  H    0.193593
    18  H    0.375873
    19  H    0.213484
    20  H    0.200642
    21  H    0.199213
    22  H    0.164853
    23  H    0.180651
    24  H    0.223436
    25  H    0.206945
    26  H    0.169422
    27  H    0.217426
    28  H    0.216287
    29  H    0.408674
    30  H    0.393627
    31  H    0.458659
 Sum of Mulliken charges =   1.00000
 Mulliken charges with hydrogens summed into heavy atoms:
               1
     1  C    0.636082
     2  N   -0.300858
     3  C    0.145588
     4  C    0.065359
     5  O   -0.601368
     6  N   -0.181494
     7  C    0.282971
     8  C    0.569564
     9  O   -0.444800
    10  C    0.014994
    11  C    0.076673
    12  C    0.241272
    13  N    0.496018
 Electronic spatial extent (au):  <R**2>=           2983.3176
 Charge=              1.0000 electrons
 Dipole moment (field-independent basis, Debye):
    X=             -9.9098    Y=             -0.6575    Z=             -1.8337  Tot=             10.0995
 Quadrupole moment (field-independent basis, Debye-Ang):
   XX=            -49.1214   YY=            -65.3112   ZZ=            -64.3081
   XY=            -15.1895   XZ=              6.2937   YZ=             -3.1372
 Traceless Quadrupole moment (field-independent basis, Debye-Ang):
   XX=             10.4588   YY=             -5.7309   ZZ=             -4.7278
   XY=            -15.1895   XZ=              6.2937   YZ=             -3.1372
 Octapole moment (field-independent basis, Debye-Ang**2):
  XXX=           -181.9564  YYY=            -35.9395  ZZZ=             -8.6302  XYY=             -4.6760
  XXY=            -20.4185  XXZ=            -47.3220  XZZ=            -14.2078  YZZ=              6.7402
  YYZ=              7.0373  XYZ=             -8.6231
 Hexadecapole moment (field-independent basis, Debye-Ang**3):
 XXXX=          -1868.1551 YYYY=          -1012.4130 ZZZZ=           -380.4897 XXXY=           -118.5423
 XXXZ=             90.1606 YYYX=            -62.2753 YYYZ=            -15.5496 ZZZX=             53.7034
 ZZZY=             -2.4075 XXYY=           -545.4131 XXZZ=           -329.3107 YYZZ=           -239.2461
 XXYZ=            -10.6314 YYXZ=              6.5513 ZZXY=              4.1169
 N-N= 8.804980977700D+02 E-N=-3.212807470633D+03  KE= 6.243045454145D+02
 1\1\GINC-MERCURY\FOpt\RB3LYP\6-31G(d)\C8H18N3O2(1+)\ROTATIONS\03-Mar-2
 021\0\\#B3LYP/6-31G(d) em=GD3BJ Opt=ModRedundant\\scan rotamers\\1,1\C
 ,0.8501261547,0.6292441822,0.2319879826\N,0.7719996388,-1.8517293805,0
 .336797231\C,0.0404857359,-0.6534677096,-0.032531396\C,-0.4028629383,-
 0.7291951849,-1.5242770364\O,0.3117092372,1.7569013061,0.1166288176\N,
 2.1250917482,0.475446712,0.5629792664\C,3.0470557425,1.5738326988,0.83
 31015677\C,0.7399219139,-2.506652227,1.5722355569\O,1.2474898174,-3.60
 37265532,1.6821994572\C,0.0741293452,-1.7691099482,2.7174696737\C,-1.8
 164182785,-0.229634264,-1.8806881399\C,-2.0391380483,1.273934652,-2.04
 79500596\N,-2.093097609,1.9987283644,-0.7296542833\H,1.1168710468,-2.4
 474159332,-0.4084082547\H,-0.8532718975,-0.5766308297,0.5985839039\H,0
 .3391143091,-0.2353881475,-2.1627191497\H,-0.3853403044,-1.7891628244,
 -1.79469842\H,2.4485205347,-0.4837338456,0.6357396316\H,2.4927736374,2
 .5099865831,0.7782182818\H,3.4776554803,1.4591954384,1.8313004202\H,3.
 8518181199,1.5806683741,0.0924719025\H,0.420851417,-0.7336244093,2.803
 5651321\H,-1.0151436906,-1.753943167,2.5879653685\H,0.3011178375,-2.30
 45831804,3.6392798451\H,-2.0744532972,-0.6672063665,-2.8514692254\H,-2
 .5512525703,-0.6398322478,-1.1735571631\H,-1.2276013828,1.7371505796,-
 2.615104197\H,-2.9802275339,1.4647416154,-2.5684395992\H,-2.2751506113
 ,2.9985313008,-0.8589722222\H,-2.8326730069,1.6273163848,-0.1268686234
 \H,-1.1098005473,1.8893580268,-0.2454862691\\Version=ES64L-G09RevD.01\
 State=1-A\HF=-630.2625187\RMSD=4.942e-09\RMSF=3.419e-06\Dipole=-2.2880
 149,2.8122623,-1.6261882\Quadrupole=11.6063531,-9.0870158,-2.5193373,-
 6.1323692,7.1188798,-0.5068072\PG=C01 [X(C8H18N3O2)]\\@


 THE POLHOLDE ROLLS WITHOUT SLIPPING ON THE HERPOLHOLDE LYING IN
 THE INVARIABLE PLANE.
 H.GOLDSTEIN, "CLASSICAL MECHANICS", PG 161
 Job cpu time:       0 days  1 hours 56 minutes 14.9 seconds.
 File lengths (MBytes):  RWF=     27 Int=      0 D2E=      0 Chk=      5 Scr=      1
 Normal termination of Gaussian 09 at Wed Mar  3 18:43:42 2021.
