 Entering Gaussian System, Link 0=g09
 Initial command:
 /home/rotations/zhangf/install/g09/l1.exe "/home/rotations/zhangf/install/g09/scratch/Gau-14471.inp" -scrdir="/home/rotations/zhangf/install/g09/scratch/"
 Default is to use a total of   4 processors:
                                4 via shared-memory
                                1 via Linda
 Entering Link 1 = /home/rotations/zhangf/install/g09/l1.exe PID=     14472.
  
 Copyright (c) 1988,1990,1992,1993,1995,1998,2003,2009,2013,
            Gaussian, Inc.  All Rights Reserved.
  
 This is part of the Gaussian(R) 09 program.  It is based on
 the Gaussian(R) 03 system (copyright 2003, Gaussian, Inc.),
 the Gaussian(R) 98 system (copyright 1998, Gaussian, Inc.),
 the Gaussian(R) 94 system (copyright 1995, Gaussian, Inc.),
 the Gaussian 92(TM) system (copyright 1992, Gaussian, Inc.),
 the Gaussian 90(TM) system (copyright 1990, Gaussian, Inc.),
 the Gaussian 88(TM) system (copyright 1988, Gaussian, Inc.),
 the Gaussian 86(TM) system (copyright 1986, Carnegie Mellon
 University), and the Gaussian 82(TM) system (copyright 1983,
 Carnegie Mellon University). Gaussian is a federally registered
 trademark of Gaussian, Inc.
  
 This software contains proprietary and confidential information,
 including trade secrets, belonging to Gaussian, Inc.
  
 This software is provided under written license and may be
 used, copied, transmitted, or stored only in accord with that
 written license.
  
 The following legend is applicable only to US Government
 contracts under FAR:
  
                    RESTRICTED RIGHTS LEGEND
  
 Use, reproduction and disclosure by the US Government is
 subject to restrictions as set forth in subparagraphs (a)
 and (c) of the Commercial Computer Software - Restricted
 Rights clause in FAR 52.227-19.
  
 Gaussian, Inc.
 340 Quinnipiac St., Bldg. 40, Wallingford CT 06492
  
  
 ---------------------------------------------------------------
 Warning -- This program may not be used in any manner that
 competes with the business of Gaussian, Inc. or will provide
 assistance to any competitor of Gaussian, Inc.  The licensee
 of this program is prohibited from giving any competitor of
 Gaussian, Inc. access to this program.  By using this program,
 the user acknowledges that Gaussian, Inc. is engaged in the
 business of creating and licensing software in the field of
 computational chemistry and represents and warrants to the
 licensee that it is not a competitor of Gaussian, Inc. and that
 it will not use this program in any manner prohibited above.
 ---------------------------------------------------------------
  

 Cite this work as:
 Gaussian 09, Revision D.01,
 M. J. Frisch, G. W. Trucks, H. B. Schlegel, G. E. Scuseria, 
 M. A. Robb, J. R. Cheeseman, G. Scalmani, V. Barone, B. Mennucci, 
 G. A. Petersson, H. Nakatsuji, M. Caricato, X. Li, H. P. Hratchian, 
 A. F. Izmaylov, J. Bloino, G. Zheng, J. L. Sonnenberg, M. Hada, 
 M. Ehara, K. Toyota, R. Fukuda, J. Hasegawa, M. Ishida, T. Nakajima, 
 Y. Honda, O. Kitao, H. Nakai, T. Vreven, J. A. Montgomery, Jr., 
 J. E. Peralta, F. Ogliaro, M. Bearpark, J. J. Heyd, E. Brothers, 
 K. N. Kudin, V. N. Staroverov, T. Keith, R. Kobayashi, J. Normand, 
 K. Raghavachari, A. Rendell, J. C. Burant, S. S. Iyengar, J. Tomasi, 
 M. Cossi, N. Rega, J. M. Millam, M. Klene, J. E. Knox, J. B. Cross, 
 V. Bakken, C. Adamo, J. Jaramillo, R. Gomperts, R. E. Stratmann, 
 O. Yazyev, A. J. Austin, R. Cammi, C. Pomelli, J. W. Ochterski, 
 R. L. Martin, K. Morokuma, V. G. Zakrzewski, G. A. Voth, 
 P. Salvador, J. J. Dannenberg, S. Dapprich, A. D. Daniels, 
 O. Farkas, J. B. Foresman, J. V. Ortiz, J. Cioslowski, 
 and D. J. Fox, Gaussian, Inc., Wallingford CT, 2013.
 
 ******************************************
 Gaussian 09:  ES64L-G09RevD.01 24-Apr-2013
                 3-Mar-2021 
 ******************************************
 %Chk=/home/rotations/zhangf/gen_ncaa_params/gaussian_output/L-homoleucine.chk
 -----------------------------------------
 #B3LYP/6-31G(d) em=GD3BJ Opt=ModRedundant
 -----------------------------------------
 1/14=-1,18=120,19=15,26=3,38=1/1,3;
 2/9=110,12=2,17=6,18=5,40=1/2;
 3/5=1,6=6,7=1,11=2,16=1,25=1,30=1,71=1,74=-5,124=41/1,2,3;
 4//1;
 5/5=2,38=5/2;
 6/7=2,8=2,9=2,10=2,28=1/1;
 7//1,2,3,16;
 1/14=-1,18=20,19=15,26=3/3(2);
 2/9=110/2;
 99//99;
 2/9=110/2;
 3/5=1,6=6,7=1,11=2,16=1,25=1,30=1,71=1,74=-5,124=41/1,2,3;
 4/5=5,16=3,69=1/1;
 5/5=2,38=5/2;
 7//1,2,3,16;
 1/14=-1,18=20,19=15,26=3/3(-5);
 2/9=110/2;
 6/7=2,8=2,9=2,10=2,19=2,28=1/1;
 99/9=1/99;
 -------------
 scan rotamers
 -------------
 Symbolic Z-matrix:
 Charge =  0 Multiplicity = 1
 C                     1.144    -2.0193   -0.8425 
 N                    -1.2655   -2.2063   -0.8425 
 C                    -0.1628   -1.2647   -0.8425 
 C                    -0.2431   -0.39      0.4017 
 O                     1.1439   -3.2273   -0.8425 
 N                     2.3296   -1.3349   -0.8425 
 C                     3.5853   -2.0601   -0.8425 
 C                    -2.5559   -1.7492   -0.8425 
 O                    -3.4745   -2.5336   -0.8425 
 C                    -2.8307   -0.2654   -0.8425 
 C                    -0.377     1.0699   -0.0109 
 C                    -0.4573    1.9445    1.2333 
 C                     0.8076    1.7662    2.0626 
 C                    -0.5904    3.4041    0.8191 
 H                    -1.0811   -3.2013   -0.8425 
 H                    -0.2215   -0.6249   -1.7513 
 H                    -1.1289   -0.6868    1.0066 
 H                     0.6816   -0.5209    1.0072 
 H                     2.3297   -0.3229   -0.8425 
 H                     3.3824   -3.1544   -0.8425 
 H                     4.1683   -1.7914   -1.7518 
 H                     4.1688   -1.7911    0.0663 
 H                    -1.8668    0.291    -0.8425 
 H                    -3.4136    0.0034   -1.7518 
 H                    -3.4142    0.0037    0.0663 
 H                     0.5088    1.3667   -0.6159 
 H                    -1.3017    1.2007   -0.6165 
 H                    -1.3427    1.6476    1.8388 
 H                     0.7489    2.4054    2.9718 
 H                     0.9048    0.6995    2.3652 
 H                     1.693     2.0631    1.457 
 H                    -0.6491    4.0442    1.7277 
 H                    -1.5151    3.5346    0.2136 
 H                     0.2954    3.7       0.2137 
 
 The following ModRedundant input section has been read:
 

 GradGradGradGradGradGradGradGradGradGradGradGradGradGradGradGradGradGrad
 Berny optimization.
 Initialization pass.
                           ----------------------------
                           !    Initial Parameters    !
                           ! (Angstroms and Degrees)  !
 --------------------------                            --------------------------
 ! Name  Definition              Value          Derivative Info.                !
 --------------------------------------------------------------------------------
 ! R1    R(1,3)                  1.509          estimate D2E/DX2                !
 ! R2    R(1,5)                  1.208          estimate D2E/DX2                !
 ! R3    R(1,6)                  1.369          estimate D2E/DX2                !
 ! R4    R(2,3)                  1.45           estimate D2E/DX2                !
 ! R5    R(2,8)                  1.369          estimate D2E/DX2                !
 ! R6    R(2,15)                 1.0119         estimate D2E/DX2                !
 ! R7    R(3,4)                  1.523          estimate D2E/DX2                !
 ! R8    R(3,16)                 1.113          estimate D2E/DX2                !
 ! R9    R(4,11)                 1.523          estimate D2E/DX2                !
 ! R10   R(4,17)                 1.1129         estimate D2E/DX2                !
 ! R11   R(4,18)                 1.113          estimate D2E/DX2                !
 ! R12   R(6,7)                  1.4501         estimate D2E/DX2                !
 ! R13   R(6,19)                 1.012          estimate D2E/DX2                !
 ! R14   R(7,20)                 1.113          estimate D2E/DX2                !
 ! R15   R(7,21)                 1.1131         estimate D2E/DX2                !
 ! R16   R(7,22)                 1.113          estimate D2E/DX2                !
 ! R17   R(8,9)                  1.2079         estimate D2E/DX2                !
 ! R18   R(8,10)                 1.509          estimate D2E/DX2                !
 ! R19   R(10,23)                1.113          estimate D2E/DX2                !
 ! R20   R(10,24)                1.113          estimate D2E/DX2                !
 ! R21   R(10,25)                1.113          estimate D2E/DX2                !
 ! R22   R(11,12)                1.523          estimate D2E/DX2                !
 ! R23   R(11,26)                1.113          estimate D2E/DX2                !
 ! R24   R(11,27)                1.1131         estimate D2E/DX2                !
 ! R25   R(12,13)                1.523          estimate D2E/DX2                !
 ! R26   R(12,14)                1.5231         estimate D2E/DX2                !
 ! R27   R(12,28)                1.113          estimate D2E/DX2                !
 ! R28   R(13,29)                1.113          estimate D2E/DX2                !
 ! R29   R(13,30)                1.113          estimate D2E/DX2                !
 ! R30   R(13,31)                1.113          estimate D2E/DX2                !
 ! R31   R(14,32)                1.113          estimate D2E/DX2                !
 ! R32   R(14,33)                1.113          estimate D2E/DX2                !
 ! R33   R(14,34)                1.113          estimate D2E/DX2                !
 ! A1    A(3,1,5)              119.9992         estimate D2E/DX2                !
 ! A2    A(3,1,6)              120.0            estimate D2E/DX2                !
 ! A3    A(5,1,6)              120.0009         estimate D2E/DX2                !
 ! A4    A(3,2,8)              120.0001         estimate D2E/DX2                !
 ! A5    A(3,2,15)             119.9948         estimate D2E/DX2                !
 ! A6    A(8,2,15)             120.005          estimate D2E/DX2                !
 ! A7    A(1,3,2)              109.502          estimate D2E/DX2                !
 ! A8    A(1,3,4)              109.442          estimate D2E/DX2                !
 ! A9    A(1,3,16)             109.4592         estimate D2E/DX2                !
 ! A10   A(2,3,4)              109.4419         estimate D2E/DX2                !
 ! A11   A(2,3,16)             109.4623         estimate D2E/DX2                !
 ! A12   A(4,3,16)             109.5199         estimate D2E/DX2                !
 ! A13   A(3,4,11)             109.5025         estimate D2E/DX2                !
 ! A14   A(3,4,17)             109.4399         estimate D2E/DX2                !
 ! A15   A(3,4,18)             109.4553         estimate D2E/DX2                !
 ! A16   A(11,4,17)            109.4452         estimate D2E/DX2                !
 ! A17   A(11,4,18)            109.4607         estimate D2E/DX2                !
 ! A18   A(17,4,18)            109.5237         estimate D2E/DX2                !
 ! A19   A(1,6,7)              119.9963         estimate D2E/DX2                !
 ! A20   A(1,6,19)             120.0018         estimate D2E/DX2                !
 ! A21   A(7,6,19)             120.0019         estimate D2E/DX2                !
 ! A22   A(6,7,20)             109.5033         estimate D2E/DX2                !
 ! A23   A(6,7,21)             109.4413         estimate D2E/DX2                !
 ! A24   A(6,7,22)             109.4581         estimate D2E/DX2                !
 ! A25   A(20,7,21)            109.4418         estimate D2E/DX2                !
 ! A26   A(20,7,22)            109.4642         estimate D2E/DX2                !
 ! A27   A(21,7,22)            109.5187         estimate D2E/DX2                !
 ! A28   A(2,8,9)              120.0            estimate D2E/DX2                !
 ! A29   A(2,8,10)             119.998          estimate D2E/DX2                !
 ! A30   A(9,8,10)             120.002          estimate D2E/DX2                !
 ! A31   A(8,10,23)            109.5029         estimate D2E/DX2                !
 ! A32   A(8,10,24)            109.4407         estimate D2E/DX2                !
 ! A33   A(8,10,25)            109.4632         estimate D2E/DX2                !
 ! A34   A(23,10,24)           109.4405         estimate D2E/DX2                !
 ! A35   A(23,10,25)           109.4611         estimate D2E/DX2                !
 ! A36   A(24,10,25)           109.5189         estimate D2E/DX2                !
 ! A37   A(4,11,12)            109.4994         estimate D2E/DX2                !
 ! A38   A(4,11,26)            109.4457         estimate D2E/DX2                !
 ! A39   A(4,11,27)            109.4561         estimate D2E/DX2                !
 ! A40   A(12,11,26)           109.4452         estimate D2E/DX2                !
 ! A41   A(12,11,27)           109.4634         estimate D2E/DX2                !
 ! A42   A(26,11,27)           109.5174         estimate D2E/DX2                !
 ! A43   A(11,12,13)           109.5014         estimate D2E/DX2                !
 ! A44   A(11,12,14)           109.4377         estimate D2E/DX2                !
 ! A45   A(11,12,28)           109.4636         estimate D2E/DX2                !
 ! A46   A(13,12,14)           109.4424         estimate D2E/DX2                !
 ! A47   A(13,12,28)           109.4657         estimate D2E/DX2                !
 ! A48   A(14,12,28)           109.5166         estimate D2E/DX2                !
 ! A49   A(12,13,29)           109.499          estimate D2E/DX2                !
 ! A50   A(12,13,30)           109.4367         estimate D2E/DX2                !
 ! A51   A(12,13,31)           109.4618         estimate D2E/DX2                !
 ! A52   A(29,13,30)           109.4464         estimate D2E/DX2                !
 ! A53   A(29,13,31)           109.4658         estimate D2E/DX2                !
 ! A54   A(30,13,31)           109.5177         estimate D2E/DX2                !
 ! A55   A(12,14,32)           109.4969         estimate D2E/DX2                !
 ! A56   A(12,14,33)           109.4464         estimate D2E/DX2                !
 ! A57   A(12,14,34)           109.4609         estimate D2E/DX2                !
 ! A58   A(32,14,33)           109.4435         estimate D2E/DX2                !
 ! A59   A(32,14,34)           109.459          estimate D2E/DX2                !
 ! A60   A(33,14,34)           109.5207         estimate D2E/DX2                !
 ! D1    D(5,1,3,2)              0.0            estimate D2E/DX2                !
 ! D2    D(5,1,3,4)            119.9651         estimate D2E/DX2                !
 ! D3    D(5,1,3,16)          -120.0006         estimate D2E/DX2                !
 ! D4    D(6,1,3,2)            180.0            estimate D2E/DX2                !
 ! D5    D(6,1,3,4)            -60.0349         estimate D2E/DX2                !
 ! D6    D(6,1,3,16)            59.9994         estimate D2E/DX2                !
 ! D7    D(3,1,6,7)            180.0            estimate D2E/DX2                !
 ! D8    D(3,1,6,19)             0.0            estimate D2E/DX2                !
 ! D9    D(5,1,6,7)              0.0            estimate D2E/DX2                !
 ! D10   D(5,1,6,19)           180.0            estimate D2E/DX2                !
 ! D11   D(8,2,3,1)            180.0            estimate D2E/DX2                !
 ! D12   D(8,2,3,4)             60.0349         estimate D2E/DX2                !
 ! D13   D(8,2,3,16)           -60.0013         estimate D2E/DX2                !
 ! D14   D(15,2,3,1)             0.0            estimate D2E/DX2                !
 ! D15   D(15,2,3,4)          -119.9651         estimate D2E/DX2                !
 ! D16   D(15,2,3,16)          119.9987         estimate D2E/DX2                !
 ! D17   D(3,2,8,9)            180.0            estimate D2E/DX2                !
 ! D18   D(3,2,8,10)             0.0            estimate D2E/DX2                !
 ! D19   D(15,2,8,9)             0.0            estimate D2E/DX2                !
 ! D20   D(15,2,8,10)          180.0            estimate D2E/DX2                !
 ! D21   D(1,3,4,11)           119.9943         estimate D2E/DX2                !
 ! D22   D(1,3,4,17)          -120.0376         estimate D2E/DX2                !
 ! D23   D(1,3,4,18)            -0.0022         estimate D2E/DX2                !
 ! D24   D(2,3,4,11)          -120.0039         estimate D2E/DX2                !
 ! D25   D(2,3,4,17)            -0.0357         estimate D2E/DX2                !
 ! D26   D(2,3,4,18)           119.9996         estimate D2E/DX2                !
 ! D27   D(16,3,4,11)           -0.003          estimate D2E/DX2                !
 ! D28   D(16,3,4,17)          119.9652         estimate D2E/DX2                !
 ! D29   D(16,3,4,18)         -119.9995         estimate D2E/DX2                !
 ! D30   D(3,4,11,12)          179.9996         estimate D2E/DX2                !
 ! D31   D(3,4,11,26)          -60.0306         estimate D2E/DX2                !
 ! D32   D(3,4,11,27)           60.0012         estimate D2E/DX2                !
 ! D33   D(17,4,11,12)          60.0348         estimate D2E/DX2                !
 ! D34   D(17,4,11,26)        -179.9954         estimate D2E/DX2                !
 ! D35   D(17,4,11,27)         -59.9637         estimate D2E/DX2                !
 ! D36   D(18,4,11,12)         -60.0071         estimate D2E/DX2                !
 ! D37   D(18,4,11,26)          59.9627         estimate D2E/DX2                !
 ! D38   D(18,4,11,27)         179.9944         estimate D2E/DX2                !
 ! D39   D(1,6,7,20)             0.0            estimate D2E/DX2                !
 ! D40   D(1,6,7,21)           119.9653         estimate D2E/DX2                !
 ! D41   D(1,6,7,22)          -120.003          estimate D2E/DX2                !
 ! D42   D(19,6,7,20)          180.0            estimate D2E/DX2                !
 ! D43   D(19,6,7,21)          -60.0347         estimate D2E/DX2                !
 ! D44   D(19,6,7,22)           59.997          estimate D2E/DX2                !
 ! D45   D(2,8,10,23)            0.0            estimate D2E/DX2                !
 ! D46   D(2,8,10,24)          119.9631         estimate D2E/DX2                !
 ! D47   D(2,8,10,25)         -120.0021         estimate D2E/DX2                !
 ! D48   D(9,8,10,23)          180.0            estimate D2E/DX2                !
 ! D49   D(9,8,10,24)          -60.0369         estimate D2E/DX2                !
 ! D50   D(9,8,10,25)           59.9979         estimate D2E/DX2                !
 ! D51   D(4,11,12,13)          60.0067         estimate D2E/DX2                !
 ! D52   D(4,11,12,14)         179.9693         estimate D2E/DX2                !
 ! D53   D(4,11,12,28)         -60.0004         estimate D2E/DX2                !
 ! D54   D(26,11,12,13)        -59.9634         estimate D2E/DX2                !
 ! D55   D(26,11,12,14)         59.9992         estimate D2E/DX2                !
 ! D56   D(26,11,12,28)       -179.9705         estimate D2E/DX2                !
 ! D57   D(27,11,12,13)       -179.9993         estimate D2E/DX2                !
 ! D58   D(27,11,12,14)        -60.0367         estimate D2E/DX2                !
 ! D59   D(27,11,12,28)         59.9936         estimate D2E/DX2                !
 ! D60   D(11,12,13,29)        179.997          estimate D2E/DX2                !
 ! D61   D(11,12,13,30)        -60.0375         estimate D2E/DX2                !
 ! D62   D(11,12,13,31)         59.9924         estimate D2E/DX2                !
 ! D63   D(14,12,13,29)         60.0372         estimate D2E/DX2                !
 ! D64   D(14,12,13,30)       -179.9973         estimate D2E/DX2                !
 ! D65   D(14,12,13,31)        -59.9673         estimate D2E/DX2                !
 ! D66   D(28,12,13,29)        -59.9973         estimate D2E/DX2                !
 ! D67   D(28,12,13,30)         59.9682         estimate D2E/DX2                !
 ! D68   D(28,12,13,31)        179.9982         estimate D2E/DX2                !
 ! D69   D(11,12,14,32)       -179.9962         estimate D2E/DX2                !
 ! D70   D(11,12,14,33)         60.0372         estimate D2E/DX2                !
 ! D71   D(11,12,14,34)        -60.0018         estimate D2E/DX2                !
 ! D72   D(13,12,14,32)        -59.9975         estimate D2E/DX2                !
 ! D73   D(13,12,14,33)       -179.964          estimate D2E/DX2                !
 ! D74   D(13,12,14,34)         59.997          estimate D2E/DX2                !
 ! D75   D(28,12,14,32)         60.0059         estimate D2E/DX2                !
 ! D76   D(28,12,14,33)        -59.9606         estimate D2E/DX2                !
 ! D77   D(28,12,14,34)       -179.9997         estimate D2E/DX2                !
 --------------------------------------------------------------------------------
 Trust Radius=3.00D-01 FncErr=1.00D-07 GrdErr=1.00D-06
 Number of steps in this run=    180 maximum allowed number of steps=    204.
 GradGradGradGradGradGradGradGradGradGradGradGradGradGradGradGradGradGrad

                          Input orientation:                          
 ---------------------------------------------------------------------
 Center     Atomic      Atomic             Coordinates (Angstroms)
 Number     Number       Type             X           Y           Z
 ---------------------------------------------------------------------
      1          6           0        1.144000   -2.019300   -0.842500
      2          7           0       -1.265500   -2.206300   -0.842500
      3          6           0       -0.162800   -1.264700   -0.842500
      4          6           0       -0.243100   -0.390000    0.401700
      5          8           0        1.143900   -3.227300   -0.842500
      6          7           0        2.329600   -1.334900   -0.842500
      7          6           0        3.585300   -2.060100   -0.842500
      8          6           0       -2.555900   -1.749200   -0.842500
      9          8           0       -3.474500   -2.533600   -0.842500
     10          6           0       -2.830700   -0.265400   -0.842500
     11          6           0       -0.377000    1.069900   -0.010900
     12          6           0       -0.457300    1.944500    1.233300
     13          6           0        0.807600    1.766200    2.062600
     14          6           0       -0.590400    3.404100    0.819100
     15          1           0       -1.081100   -3.201300   -0.842500
     16          1           0       -0.221500   -0.624900   -1.751300
     17          1           0       -1.128900   -0.686800    1.006600
     18          1           0        0.681600   -0.520900    1.007200
     19          1           0        2.329700   -0.322900   -0.842500
     20          1           0        3.382400   -3.154400   -0.842500
     21          1           0        4.168300   -1.791400   -1.751800
     22          1           0        4.168800   -1.791100    0.066300
     23          1           0       -1.866800    0.291000   -0.842500
     24          1           0       -3.413600    0.003400   -1.751800
     25          1           0       -3.414200    0.003700    0.066300
     26          1           0        0.508800    1.366700   -0.615900
     27          1           0       -1.301700    1.200700   -0.616500
     28          1           0       -1.342700    1.647600    1.838800
     29          1           0        0.748900    2.405400    2.971800
     30          1           0        0.904800    0.699500    2.365200
     31          1           0        1.693000    2.063100    1.457000
     32          1           0       -0.649100    4.044200    1.727700
     33          1           0       -1.515100    3.534600    0.213600
     34          1           0        0.295400    3.700000    0.213700
 ---------------------------------------------------------------------
                    Distance matrix (angstroms):
                    1          2          3          4          5
     1  C    0.000000
     2  N    2.416746   0.000000
     3  C    1.509022   1.450020   0.000000
     4  C    2.475217   2.427402   1.523017   0.000000
     5  O    1.208000   2.616801   2.357809   3.394418   0.000000
     6  N    1.368960   3.699200   2.493388   3.009926   2.233173
     7  C    2.441641   4.853003   3.831568   4.358201   2.706065
     8  C    3.709746   1.368968   2.441653   2.957110   3.984131
     9  O    4.647047   2.233116   3.546472   4.072469   4.670208
    10  C    4.344468   2.493380   2.848910   2.873888   4.956843
    11  C    3.542338   3.494922   2.487528   1.522983   4.633640
    12  C    4.752349   4.710761   3.833359   2.487435   5.798302
    13  C    4.783595   5.340235   4.309018   2.917492   5.786860
    14  C    5.931469   5.890099   4.974078   3.832758   7.052955
    15  H    2.519562   1.011943   2.143291   3.186485   2.225152
    16  H    2.152872   2.101590   1.112972   2.165884   3.076154
    17  H    3.218820   2.397230   2.164830   1.112940   3.878006
    18  H    2.424955   3.170672   2.165096   1.113030   3.310546
    19  H    2.069700   4.058652   2.664497   2.858642   3.137142
    20  H    2.509758   4.743613   4.017388   4.725906   2.239687
    21  H    3.166253   5.524957   4.456755   5.105089   3.469241
    22  H    3.166608   5.525389   4.457104   4.641168   3.469670
    23  H    3.795050   2.568671   2.307340   2.155968   4.630632
    24  H    5.068517   3.213088   3.605912   3.852843   5.659952
    25  H    5.069086   3.213554   3.606433   3.213000   5.660526
    26  H    3.452510   3.995725   2.725190   2.164915   4.643225
    27  H    4.049805   3.414679   2.725136   2.165108   5.063518
    28  H    5.178726   4.695516   4.130741   2.725104   6.094030
    29  H    5.855165   6.314623   5.371193   3.924760   6.814119
    30  H    4.211701   4.841819   3.909884   2.521907   5.076048
    31  H    4.717530   5.680510   4.450387   3.298460   5.794613
    32  H    6.825479   6.786356   5.918347   4.645992   7.918048
    33  H    6.247557   5.842566   5.096797   4.129873   7.342269
    34  H    5.877591   6.199705   5.096445   4.129579   7.058541
                    6          7          8          9         10
     6  N    0.000000
     7  C    1.450068   0.000000
     8  C    4.903035   6.149065   0.000000
     9  O    5.926589   7.075661   1.207936   0.000000
    10  C    5.269965   6.662282   1.509032   2.357798   0.000000
    11  C    3.714876   5.117449   3.658755   4.824031   2.914657
    12  C    4.778098   6.057093   4.728265   5.784965   3.850407
    13  C    4.513636   5.549396   5.666637   6.727872   5.079787
    14  C    5.809082   7.074946   5.760261   6.806999   4.609240
    15  H    3.887972   4.803918   2.069693   2.484791   3.417691
    16  H    2.799666   4.168626   2.745795   3.879570   2.786231
    17  H    3.974975   5.246790   2.565968   3.511649   2.548111
    18  H    2.607660   3.771207   3.925751   4.974487   3.977804
    19  H    1.012000   2.143454   5.089540   6.210953   5.160720
    20  H    2.102134   1.112951   6.102294   6.884945   6.851929
    21  H    2.101437   1.113066   6.785534   7.732404   7.220907
    22  H    2.101593   1.112992   6.785961   7.732869   7.221266
    23  H    4.500369   5.937429   2.153433   3.250087   1.112962
    24  H    5.966760   7.353194   2.152692   2.695720   1.113037
    25  H    5.967328   7.353787   2.152964   2.695820   1.113016
    26  H    3.265778   4.610765   4.376365   5.579459   3.723890
    27  H    4.434713   5.879342   3.213410   4.326330   2.130344
    28  H    5.437873   6.724700   4.494383   5.405217   3.614289
    29  H    5.571117   6.521866   6.536917   7.535231   5.873295
    30  H    4.056868   5.008973   5.316194   6.318271   5.017403
    31  H    4.152031   5.086185   6.154225   7.288375   5.583321
    32  H    6.664330   7.861205   6.618557   7.606331   5.471559
    33  H    6.293576   7.643958   5.487910   6.463563   4.157662
    34  H    5.532065   6.716975   6.240132   7.361078   5.158726
                   11         12         13         14         15
    11  C    0.000000
    12  C    1.522960   0.000000
    13  C    2.487471   1.522991   0.000000
    14  C    2.486550   1.523059   2.486647   0.000000
    15  H    4.408000   5.583666   6.056637   6.828837   0.000000
    16  H    2.434239   3.945283   4.617601   4.793317   2.864030
    17  H    2.164868   2.725102   3.298845   4.130448   3.121565
    18  H    2.165134   2.725144   2.522017   4.130253   3.703113
    19  H    3.155578   4.149388   3.888539   5.017811   4.463042
    20  H    5.715711   6.712006   6.267496   7.845889   4.463746
    21  H    5.646018   6.653116   6.204875   7.499865   5.510975
    22  H    5.371739   6.059488   5.285571   7.085675   5.511445
    23  H    1.875566   3.004946   4.215239   3.752533   3.579593
    24  H    3.659111   4.628002   5.956143   5.113193   4.066631
    25  H    3.219833   3.724493   4.991514   4.483668   4.067099
    26  H    1.112995   2.164889   2.724563   2.723686   4.842082
    27  H    1.113072   2.165181   3.456373   2.724310   4.413314
    28  H    2.165111   1.112975   2.165166   2.165880   5.547038
    29  H    3.456546   2.165578   1.112954   2.724930   7.023736
    30  H    2.725080   2.164842   1.113042   3.455562   5.426728
    31  H    2.725083   2.165155   1.113029   2.723805   6.379439
    32  H    3.455898   2.165631   2.724595   1.112981   7.699988
    33  H    2.724044   2.164982   3.455572   1.112983   6.831987
    34  H    2.723966   2.165161   2.724034   1.112972   7.116056
                   16         17         18         19         20
    16  H    0.000000
    17  H    2.904000   0.000000
    18  H    2.904432   1.818085   0.000000
    19  H    2.725022   3.938719   2.485322   0.000000
    20  H    4.495818   5.464435   4.201313   3.020856   0.000000
    21  H    4.542143   6.073651   4.624211   2.522651   1.817205
    22  H    4.892691   5.492656   3.828742   2.522661   1.817396
    23  H    2.090886   2.218053   3.251909   4.241166   6.278924
    24  H    3.253347   3.647602   4.965645   5.823984   7.548784
    25  H    3.727216   2.565843   4.235100   5.824515   7.549390
    26  H    2.406022   3.087301   2.495465   2.494348   5.361835
    27  H    2.405705   2.495390   3.087683   3.944553   6.399904
    28  H    4.394333   2.487507   3.080867   4.955680   7.250872
    29  H    5.694916   4.117019   3.525254   4.948882   7.238479
    30  H    4.468575   2.811327   1.839391   3.655815   5.592887
    31  H    4.602591   3.965845   2.811104   3.374327   5.946770
    32  H    5.838388   4.809631   4.809368   5.877988   8.641687
    33  H    4.778669   4.312565   4.679997   5.547805   8.357247
    34  H    4.778407   4.679886   4.312168   4.630082   7.591306
                   21         22         23         24         25
    21  H    0.000000
    22  H    1.818100   0.000000
    23  H    6.448694   6.448994   0.000000
    24  H    7.791439   8.001157   1.817177   0.000000
    25  H    8.001386   7.792509   1.817390   1.818100   0.000000
    26  H    4.965461   4.881874   2.617624   4.305122   4.208693
    27  H    6.337387   6.272436   1.094517   2.680029   2.522237
    28  H    7.422281   6.733725   3.050314   4.459196   3.183595
    29  H    7.184555   6.143961   5.085416   6.738576   5.616182
    30  H    5.814181   4.705500   4.258871   6.006898   4.941947
    31  H    5.592913   4.787326   4.593497   6.373078   5.679671
    32  H    8.328775   7.747460   4.709058   6.006450   5.170268
    33  H    8.033063   7.790475   3.429283   4.465028   4.011924
    34  H    7.001287   6.721394   4.172763   5.593275   5.238845
                   26         27         28         29         30
    26  H    0.000000
    27  H    1.818094   0.000000
    28  H    3.087476   2.495977   0.000000
    29  H    3.742745   4.304899   2.496546   0.000000
    30  H    3.080411   3.743044   2.495445   1.817241   0.000000
    31  H    2.486809   3.743176   3.087699   1.817447   1.818101
    32  H    3.741951   3.742546   2.497422   2.487540   3.742730
    33  H    3.079616   2.486301   2.496350   3.742787   4.303846
    34  H    2.485571   3.080010   3.088150   3.080384   3.742101
                   31         32         33         34
    31  H    0.000000
    32  H    3.079524   0.000000
    33  H    3.742093   1.817181   0.000000
    34  H    2.485663   1.817347   1.818039   0.000000
 Stoichiometry    C10H20N2O2
 Framework group  C1[X(C10H20N2O2)]
 Deg. of freedom    96
 Full point group                 C1      NOp   1
 Largest Abelian subgroup         C1      NOp   1
 Largest concise Abelian subgroup C1      NOp   1
                         Standard orientation:                         
 ---------------------------------------------------------------------
 Center     Atomic      Atomic             Coordinates (Angstroms)
 Number     Number       Type             X           Y           Z
 ---------------------------------------------------------------------
      1          6           0       -1.931523   -0.772660   -0.098806
      2          7           0       -1.389206    1.570591    0.137259
      3          6           0       -0.880678    0.289140   -0.312006
      4          6           0        0.368696   -0.067309    0.482721
      5          8           0       -2.999360   -0.477529    0.382739
      6          7           0       -1.674704   -2.070343   -0.451103
      7          6           0       -2.684553   -3.090597   -0.246197
      8          6           0       -0.606166    2.689412    0.041551
      9          8           0       -1.029797    3.756921    0.415811
     10          6           0        0.786209    2.589052   -0.531507
     11          6           0        1.548487   -0.223435   -0.467644
     12          6           0        2.797772   -0.579860    0.327124
     13          6           0        2.570325   -1.888687    1.071933
     14          6           0        3.976481   -0.736393   -0.624639
     15          1           0       -2.322936    1.637770    0.521529
     16          1           0       -0.628422    0.349098   -1.394355
     17          1           0        0.586492    0.743174    1.213692
     18          1           0        0.201656   -1.023853    1.026741
     19          1           0       -0.780130   -2.317605   -0.854517
     20          1           0       -3.592321   -2.629855    0.203619
     21          1           0       -2.948984   -3.551808   -1.224090
     22          1           0       -2.287557   -3.872939    0.438702
     23          1           0        0.994986    1.534033   -0.817917
     24          1           0        0.864269    3.239561   -1.431283
     25          1           0        1.526018    2.919478    0.231583
     26          1           0        1.330654   -1.033900   -1.198705
     27          1           0        1.715402    0.733151   -1.011714
     28          1           0        3.015581    0.230161    1.058656
     29          1           0        3.483323   -2.149145    1.652677
     30          1           0        1.708888   -1.774203    1.767407
     31          1           0        2.352480   -2.698689    0.340310
     32          1           0        4.890056   -0.996965   -0.044802
     33          1           0        4.143167    0.220249   -1.168498
     34          1           0        3.757707   -1.546568   -1.355708
 ---------------------------------------------------------------------
 Rotational constants (GHZ):      0.6200842      0.5254920      0.3056582
 Standard basis: 6-31G(d) (6D, 7F)
 There are   250 symmetry adapted cartesian basis functions of A   symmetry.
 There are   250 symmetry adapted basis functions of A   symmetry.
   250 basis functions,   472 primitive gaussians,   250 cartesian basis functions
    55 alpha electrons       55 beta electrons
       nuclear repulsion energy       971.3004844139 Hartrees.
 NAtoms=   34 NActive=   34 NUniq=   34 SFac= 1.00D+00 NAtFMM=   60 NAOKFM=F Big=F
 Integral buffers will be    131072 words long.
 Raffenetti 2 integral format.
 Two-electron integral symmetry is turned on.
 Nuclear repulsion after empirical dispersion term =      971.2399380468 Hartrees.
 One-electron integrals computed using PRISM.
 NBasis=   250 RedAO= T EigKep=  1.43D-03  NBF=   250
 NBsUse=   250 1.00D-06 EigRej= -1.00D+00 NBFU=   250
 ExpMin= 1.61D-01 ExpMax= 5.48D+03 ExpMxC= 8.25D+02 IAcc=1 IRadAn=         1 AccDes= 0.00D+00
 Harris functional with IExCor=  402 and IRadAn=       1 diagonalized for initial guess.
 HarFok:  IExCor=  402 AccDes= 0.00D+00 IRadAn=         1 IDoV= 1 UseB2=F ITyADJ=14
 ICtDFT=  3500011 ScaDFX=  1.000000  1.000000  1.000000  1.000000
 FoFCou: FMM=F IPFlag=           0 FMFlag=      100000 FMFlg1=           0
         NFxFlg=           0 DoJE=T BraDBF=F KetDBF=T FulRan=T
         wScrn=  0.000000 ICntrl=     500 IOpCl=  0 I1Cent=   200000004 NGrid=           0
         NMat0=    1 NMatS0=      1 NMatT0=    0 NMatD0=    1 NMtDS0=    0 NMtDT0=    0
 Petite list used in FoFCou.
 Keep R1 ints in memory in canonical form, NReq=500326964.
 Requested convergence on RMS density matrix=1.00D-08 within 128 cycles.
 Requested convergence on MAX density matrix=1.00D-06.
 Requested convergence on             energy=1.00D-06.
 No special actions if energy rises.
 Integral accuracy reduced to 1.0D-05 until final iterations.
 Initial convergence to 1.0D-05 achieved.  Increase integral accuracy.
 SCF Done:  E(RB3LYP) =  -653.083898450     A.U. after   14 cycles
            NFock= 14  Conv=0.97D-08     -V/T= 2.0090

 **********************************************************************

            Population analysis using the SCF density.

 **********************************************************************

 Orbital symmetries:
       Occupied  (A) (A) (A) (A) (A) (A) (A) (A) (A) (A) (A) (A)
                 (A) (A) (A) (A) (A) (A) (A) (A) (A) (A) (A) (A)
                 (A) (A) (A) (A) (A) (A) (A) (A) (A) (A) (A) (A)
                 (A) (A) (A) (A) (A) (A) (A) (A) (A) (A) (A) (A)
                 (A) (A) (A) (A) (A) (A) (A)
       Virtual   (A) (A) (A) (A) (A) (A) (A) (A) (A) (A) (A) (A)
                 (A) (A) (A) (A) (A) (A) (A) (A) (A) (A) (A) (A)
                 (A) (A) (A) (A) (A) (A) (A) (A) (A) (A) (A) (A)
                 (A) (A) (A) (A) (A) (A) (A) (A) (A) (A) (A) (A)
                 (A) (A) (A) (A) (A) (A) (A) (A) (A) (A) (A) (A)
                 (A) (A) (A) (A) (A) (A) (A) (A) (A) (A) (A) (A)
                 (A) (A) (A) (A) (A) (A) (A) (A) (A) (A) (A) (A)
                 (A) (A) (A) (A) (A) (A) (A) (A) (A) (A) (A) (A)
                 (A) (A) (A) (A) (A) (A) (A) (A) (A) (A) (A) (A)
                 (A) (A) (A) (A) (A) (A) (A) (A) (A) (A) (A) (A)
                 (A) (A) (A) (A) (A) (A) (A) (A) (A) (A) (A) (A)
                 (A) (A) (A) (A) (A) (A) (A) (A) (A) (A) (A) (A)
                 (A) (A) (A) (A) (A) (A) (A) (A) (A) (A) (A) (A)
                 (A) (A) (A) (A) (A) (A) (A) (A) (A) (A) (A) (A)
                 (A) (A) (A) (A) (A) (A) (A) (A) (A) (A) (A) (A)
                 (A) (A) (A) (A) (A) (A) (A) (A) (A) (A) (A) (A)
                 (A) (A) (A)
 The electronic state is 1-A.
 Alpha  occ. eigenvalues --  -19.12332 -19.08533 -14.37346 -14.34002 -10.29594
 Alpha  occ. eigenvalues --  -10.26775 -10.24115 -10.23020 -10.19996 -10.19916
 Alpha  occ. eigenvalues --  -10.19543 -10.18940 -10.18771 -10.17718  -1.05794
 Alpha  occ. eigenvalues --   -1.01881  -0.93020  -0.91758  -0.83913  -0.78226
 Alpha  occ. eigenvalues --   -0.74630  -0.71685  -0.69117  -0.68341  -0.63049
 Alpha  occ. eigenvalues --   -0.59728  -0.57761  -0.57039  -0.54356  -0.51315
 Alpha  occ. eigenvalues --   -0.49023  -0.47315  -0.46501  -0.45773  -0.44824
 Alpha  occ. eigenvalues --   -0.43992  -0.43556  -0.42955  -0.41250  -0.40121
 Alpha  occ. eigenvalues --   -0.39634  -0.39549  -0.39357  -0.38365  -0.37911
 Alpha  occ. eigenvalues --   -0.36274  -0.35484  -0.34465  -0.34113  -0.32435
 Alpha  occ. eigenvalues --   -0.31342  -0.26522  -0.26219  -0.23394  -0.22436
 Alpha virt. eigenvalues --    0.01573   0.04019   0.04336   0.07369   0.08631
 Alpha virt. eigenvalues --    0.09364   0.10717   0.11797   0.12811   0.13538
 Alpha virt. eigenvalues --    0.13656   0.14223   0.15241   0.15692   0.16207
 Alpha virt. eigenvalues --    0.16470   0.16795   0.17402   0.17602   0.18517
 Alpha virt. eigenvalues --    0.19866   0.20414   0.20847   0.22777   0.24058
 Alpha virt. eigenvalues --    0.24316   0.24926   0.26993   0.29689   0.30050
 Alpha virt. eigenvalues --    0.33925   0.34379   0.34838   0.40939   0.42868
 Alpha virt. eigenvalues --    0.47630   0.50606   0.51400   0.51747   0.52458
 Alpha virt. eigenvalues --    0.53871   0.54457   0.55229   0.56427   0.57685
 Alpha virt. eigenvalues --    0.60278   0.61268   0.61914   0.63246   0.63921
 Alpha virt. eigenvalues --    0.65099   0.66636   0.68085   0.69547   0.70247
 Alpha virt. eigenvalues --    0.71144   0.71889   0.72705   0.73500   0.74705
 Alpha virt. eigenvalues --    0.75777   0.77298   0.78189   0.80003   0.80970
 Alpha virt. eigenvalues --    0.82165   0.83018   0.84477   0.85115   0.85256
 Alpha virt. eigenvalues --    0.86250   0.87207   0.87578   0.88312   0.88945
 Alpha virt. eigenvalues --    0.89728   0.90023   0.90496   0.91510   0.92232
 Alpha virt. eigenvalues --    0.92821   0.93951   0.94886   0.95057   0.95288
 Alpha virt. eigenvalues --    0.97199   0.99248   1.02075   1.03555   1.04805
 Alpha virt. eigenvalues --    1.05979   1.06931   1.09801   1.13219   1.13729
 Alpha virt. eigenvalues --    1.15275   1.15888   1.23059   1.25556   1.31267
 Alpha virt. eigenvalues --    1.32126   1.34684   1.35894   1.37437   1.41119
 Alpha virt. eigenvalues --    1.42674   1.45719   1.46314   1.48196   1.49079
 Alpha virt. eigenvalues --    1.51462   1.53705   1.59220   1.62859   1.64836
 Alpha virt. eigenvalues --    1.67106   1.69275   1.74391   1.77863   1.78461
 Alpha virt. eigenvalues --    1.78957   1.80615   1.81665   1.82739   1.83864
 Alpha virt. eigenvalues --    1.84477   1.85118   1.87089   1.88661   1.89301
 Alpha virt. eigenvalues --    1.91713   1.93136   1.93521   1.94513   1.96536
 Alpha virt. eigenvalues --    1.99345   1.99836   2.02205   2.03334   2.04262
 Alpha virt. eigenvalues --    2.07627   2.09704   2.10683   2.11990   2.13766
 Alpha virt. eigenvalues --    2.16813   2.18915   2.20626   2.21928   2.23031
 Alpha virt. eigenvalues --    2.23346   2.24814   2.26717   2.26805   2.28163
 Alpha virt. eigenvalues --    2.31663   2.34264   2.38011   2.41624   2.42536
 Alpha virt. eigenvalues --    2.47673   2.48857   2.50024   2.52698   2.53519
 Alpha virt. eigenvalues --    2.57154   2.59546   2.64946   2.66103   2.67270
 Alpha virt. eigenvalues --    2.67833   2.69554   2.74516   2.81449   2.85112
 Alpha virt. eigenvalues --    2.88583   2.94953   3.01196   3.07910   3.10941
 Alpha virt. eigenvalues --    3.23117   3.95683   4.01615   4.06019   4.09999
 Alpha virt. eigenvalues --    4.17523   4.22343   4.24480   4.28050   4.31523
 Alpha virt. eigenvalues --    4.41687   4.48727   4.59615   4.61659   4.68466
          Condensed to atoms (all electrons):
               1          2          3          4          5          6
     1  C    4.329284  -0.019696   0.304036  -0.014411   0.624185   0.268705
     2  N   -0.019696   7.177161   0.214307  -0.066597  -0.010252   0.003086
     3  C    0.304036   0.214307   5.222313   0.284298  -0.095750  -0.121719
     4  C   -0.014411  -0.066597   0.284298   5.283392   0.000864  -0.003765
     5  O    0.624185  -0.010252  -0.095750   0.000864   8.056144  -0.111212
     6  N    0.268705   0.003086  -0.121719  -0.003765  -0.111212   7.118777
     7  C   -0.026277  -0.000065   0.005363  -0.000083  -0.011814   0.266003
     8  C    0.002767   0.285443  -0.014003  -0.006025   0.000896  -0.000011
     9  O   -0.000104  -0.095893   0.003893  -0.000082  -0.000002   0.000000
    10  C    0.000618  -0.136136   0.011580  -0.003795  -0.000040  -0.000014
    11  C   -0.001430   0.002459  -0.032239   0.342045   0.000027  -0.000667
    12  C    0.000046  -0.000148   0.005362  -0.046733   0.000001   0.000025
    13  C   -0.000063  -0.000005   0.000659  -0.008769   0.000000  -0.000051
    14  C   -0.000001   0.000002  -0.000146   0.004918   0.000000   0.000001
    15  H   -0.000349   0.280408  -0.043521   0.003883   0.026440   0.001002
    16  H   -0.028946  -0.046145   0.371327  -0.075449   0.001001   0.001649
    17  H    0.000971  -0.003618  -0.041299   0.378547  -0.000192   0.000262
    18  H   -0.006014   0.004882  -0.045838   0.360607  -0.000326   0.009502
    19  H   -0.017627  -0.000003   0.001126  -0.000758   0.003808   0.298244
    20  H   -0.003752   0.000000   0.001266  -0.000038   0.023014  -0.035190
    21  H    0.001313   0.000000  -0.000131  -0.000009   0.000712  -0.045110
    22  H    0.001364   0.000001  -0.000065   0.000051   0.000671  -0.045251
    23  H    0.000521   0.007727  -0.004327   0.000104   0.000003   0.000014
    24  H   -0.000009   0.002117  -0.000421   0.000370   0.000000   0.000000
    25  H   -0.000014   0.002340   0.000048  -0.000362   0.000000   0.000000
    26  H   -0.000070   0.000138  -0.005160  -0.044267  -0.000010  -0.000110
    27  H   -0.000126   0.000728  -0.006623  -0.061659   0.000000  -0.000009
    28  H   -0.000001  -0.000010   0.000004  -0.005757   0.000000  -0.000001
    29  H    0.000000   0.000000  -0.000006   0.000332   0.000000   0.000000
    30  H   -0.000111   0.000003   0.000253  -0.001399   0.000001  -0.000086
    31  H   -0.000001   0.000000  -0.000079  -0.001128   0.000000  -0.000013
    32  H    0.000000   0.000000   0.000002  -0.000190   0.000000   0.000000
    33  H    0.000000   0.000000   0.000000   0.000044   0.000000   0.000000
    34  H    0.000000   0.000000  -0.000003   0.000100   0.000000  -0.000001
               7          8          9         10         11         12
     1  C   -0.026277   0.002767  -0.000104   0.000618  -0.001430   0.000046
     2  N   -0.000065   0.285443  -0.095893  -0.136136   0.002459  -0.000148
     3  C    0.005363  -0.014003   0.003893   0.011580  -0.032239   0.005362
     4  C   -0.000083  -0.006025  -0.000082  -0.003795   0.342045  -0.046733
     5  O   -0.011814   0.000896  -0.000002  -0.000040   0.000027   0.000001
     6  N    0.266003  -0.000011   0.000000  -0.000014  -0.000667   0.000025
     7  C    4.972399   0.000000   0.000000   0.000000   0.000025  -0.000001
     8  C    0.000000   4.264094   0.617979   0.319121   0.002477  -0.000043
     9  O    0.000000   0.617979   8.068308  -0.096946  -0.000046   0.000000
    10  C    0.000000   0.319121  -0.096946   5.509333  -0.061464   0.002336
    11  C    0.000025   0.002477  -0.000046  -0.061464   5.217810   0.366148
    12  C   -0.000001  -0.000043   0.000000   0.002336   0.366148   4.876357
    13  C   -0.000001   0.000005   0.000000  -0.000161  -0.056311   0.380828
    14  C    0.000000   0.000000   0.000000   0.000040  -0.051484   0.373367
    15  H   -0.000009  -0.004858   0.006170   0.007068  -0.000115   0.000006
    16  H   -0.000147  -0.003153   0.000040  -0.001160  -0.002364   0.000561
    17  H    0.000002  -0.001748  -0.000368   0.004041  -0.039317  -0.002546
    18  H   -0.000337   0.000236  -0.000002  -0.000039  -0.031744  -0.006595
    19  H   -0.028735  -0.000009   0.000000   0.000017   0.001684  -0.000148
    20  H    0.374123   0.000000   0.000000   0.000000   0.000000   0.000000
    21  H    0.380071   0.000000   0.000000   0.000000  -0.000001   0.000000
    22  H    0.379475   0.000000   0.000000   0.000000   0.000001   0.000000
    23  H    0.000001  -0.012891   0.005763   0.273809  -0.047125  -0.004450
    24  H    0.000000  -0.018669  -0.001160   0.363037   0.000920   0.000000
    25  H    0.000000  -0.020971  -0.000878   0.373285   0.001716  -0.000114
    26  H    0.000017  -0.000140   0.000000   0.002865   0.345954  -0.031203
    27  H    0.000000   0.001187  -0.000059  -0.058913   0.385650  -0.027845
    28  H    0.000000  -0.000060   0.000000   0.001143  -0.047708   0.381817
    29  H    0.000000   0.000000   0.000000   0.000004   0.005822  -0.032764
    30  H    0.000004   0.000000   0.000000  -0.000006  -0.007318  -0.034785
    31  H    0.000000   0.000000   0.000000   0.000002  -0.006647  -0.037653
    32  H    0.000000   0.000000   0.000000   0.000002   0.005357  -0.031362
    33  H    0.000000   0.000001   0.000000  -0.000024  -0.006408  -0.032526
    34  H    0.000000   0.000000   0.000000   0.000000  -0.008026  -0.034653
              13         14         15         16         17         18
     1  C   -0.000063  -0.000001  -0.000349  -0.028946   0.000971  -0.006014
     2  N   -0.000005   0.000002   0.280408  -0.046145  -0.003618   0.004882
     3  C    0.000659  -0.000146  -0.043521   0.371327  -0.041299  -0.045838
     4  C   -0.008769   0.004918   0.003883  -0.075449   0.378547   0.360607
     5  O    0.000000   0.000000   0.026440   0.001001  -0.000192  -0.000326
     6  N   -0.000051   0.000001   0.001002   0.001649   0.000262   0.009502
     7  C   -0.000001   0.000000  -0.000009  -0.000147   0.000002  -0.000337
     8  C    0.000005   0.000000  -0.004858  -0.003153  -0.001748   0.000236
     9  O    0.000000   0.000000   0.006170   0.000040  -0.000368  -0.000002
    10  C   -0.000161   0.000040   0.007068  -0.001160   0.004041  -0.000039
    11  C   -0.056311  -0.051484  -0.000115  -0.002364  -0.039317  -0.031744
    12  C    0.380828   0.373367   0.000006   0.000561  -0.002546  -0.006595
    13  C    5.137079  -0.058321   0.000000  -0.000022  -0.001128  -0.000428
    14  C   -0.058321   5.115668   0.000000  -0.000021   0.000099   0.000156
    15  H    0.000000   0.000000   0.369177   0.003339   0.000248   0.000017
    16  H   -0.000022  -0.000021   0.003339   0.605347   0.003805   0.005551
    17  H   -0.001128   0.000099   0.000248   0.003805   0.542858  -0.020155
    18  H   -0.000428   0.000156   0.000017   0.005551  -0.020155   0.561442
    19  H    0.000143  -0.000005  -0.000043   0.000745   0.000050  -0.000267
    20  H    0.000000   0.000000  -0.000031  -0.000033   0.000001  -0.000047
    21  H    0.000000   0.000000   0.000000   0.000017   0.000000   0.000023
    22  H    0.000001   0.000000   0.000000  -0.000005  -0.000002  -0.000071
    23  H    0.000239   0.000053  -0.000463  -0.006461  -0.007872   0.000345
    24  H    0.000000   0.000002  -0.000118   0.000697   0.000265  -0.000011
    25  H    0.000008  -0.000043  -0.000097  -0.000027   0.001167   0.000006
    26  H   -0.010153  -0.005333  -0.000003   0.001600   0.005229  -0.003824
    27  H    0.004719  -0.002808  -0.000023   0.004603  -0.002177   0.004739
    28  H   -0.046178  -0.043235   0.000000   0.000001   0.005365  -0.000135
    29  H    0.367382  -0.004140   0.000000   0.000001  -0.000050  -0.000035
    30  H    0.368630   0.005662   0.000000  -0.000001   0.000717   0.005855
    31  H    0.369015  -0.006335   0.000000   0.000003   0.000132   0.000890
    32  H   -0.004231   0.366486   0.000000   0.000001   0.000001  -0.000001
    33  H    0.005842   0.367698   0.000000   0.000003  -0.000007  -0.000003
    34  H   -0.007005   0.370923   0.000000  -0.000002   0.000008   0.000001
              19         20         21         22         23         24
     1  C   -0.017627  -0.003752   0.001313   0.001364   0.000521  -0.000009
     2  N   -0.000003   0.000000   0.000000   0.000001   0.007727   0.002117
     3  C    0.001126   0.001266  -0.000131  -0.000065  -0.004327  -0.000421
     4  C   -0.000758  -0.000038  -0.000009   0.000051   0.000104   0.000370
     5  O    0.003808   0.023014   0.000712   0.000671   0.000003   0.000000
     6  N    0.298244  -0.035190  -0.045110  -0.045251   0.000014   0.000000
     7  C   -0.028735   0.374123   0.380071   0.379475   0.000001   0.000000
     8  C   -0.000009   0.000000   0.000000   0.000000  -0.012891  -0.018669
     9  O    0.000000   0.000000   0.000000   0.000000   0.005763  -0.001160
    10  C    0.000017   0.000000   0.000000   0.000000   0.273809   0.363037
    11  C    0.001684   0.000000  -0.000001   0.000001  -0.047125   0.000920
    12  C   -0.000148   0.000000   0.000000   0.000000  -0.004450   0.000000
    13  C    0.000143   0.000000   0.000000   0.000001   0.000239   0.000000
    14  C   -0.000005   0.000000   0.000000   0.000000   0.000053   0.000002
    15  H   -0.000043  -0.000031   0.000000   0.000000  -0.000463  -0.000118
    16  H    0.000745  -0.000033   0.000017  -0.000005  -0.006461   0.000697
    17  H    0.000050   0.000001   0.000000  -0.000002  -0.007872   0.000265
    18  H   -0.000267  -0.000047   0.000023  -0.000071   0.000345  -0.000011
    19  H    0.408526   0.003598  -0.001026  -0.000416  -0.000011   0.000000
    20  H    0.003598   0.469413  -0.023066  -0.023715   0.000000   0.000000
    21  H   -0.001026  -0.023066   0.568585  -0.037891   0.000000   0.000000
    22  H   -0.000416  -0.023715  -0.037891   0.570265   0.000000   0.000000
    23  H   -0.000011   0.000000   0.000000   0.000000   0.793284  -0.029842
    24  H    0.000000   0.000000   0.000000   0.000000  -0.029842   0.523373
    25  H    0.000000   0.000000   0.000000   0.000000  -0.042700  -0.018463
    26  H    0.004516   0.000001   0.000001  -0.000004  -0.000592  -0.000057
    27  H   -0.000026   0.000000   0.000000   0.000000   0.006337   0.002764
    28  H    0.000008   0.000000   0.000000   0.000000  -0.000524  -0.000022
    29  H   -0.000002   0.000000   0.000000   0.000000  -0.000003   0.000000
    30  H    0.000013   0.000000   0.000000   0.000004  -0.000013   0.000000
    31  H    0.000451   0.000000   0.000000   0.000000  -0.000013   0.000000
    32  H    0.000000   0.000000   0.000000   0.000000  -0.000007   0.000000
    33  H    0.000000   0.000000   0.000000   0.000000  -0.000412   0.000004
    34  H   -0.000001   0.000000   0.000000   0.000000   0.000016   0.000000
              25         26         27         28         29         30
     1  C   -0.000014  -0.000070  -0.000126  -0.000001   0.000000  -0.000111
     2  N    0.002340   0.000138   0.000728  -0.000010   0.000000   0.000003
     3  C    0.000048  -0.005160  -0.006623   0.000004  -0.000006   0.000253
     4  C   -0.000362  -0.044267  -0.061659  -0.005757   0.000332  -0.001399
     5  O    0.000000  -0.000010   0.000000   0.000000   0.000000   0.000001
     6  N    0.000000  -0.000110  -0.000009  -0.000001   0.000000  -0.000086
     7  C    0.000000   0.000017   0.000000   0.000000   0.000000   0.000004
     8  C   -0.020971  -0.000140   0.001187  -0.000060   0.000000   0.000000
     9  O   -0.000878   0.000000  -0.000059   0.000000   0.000000   0.000000
    10  C    0.373285   0.002865  -0.058913   0.001143   0.000004  -0.000006
    11  C    0.001716   0.345954   0.385650  -0.047708   0.005822  -0.007318
    12  C   -0.000114  -0.031203  -0.027845   0.381817  -0.032764  -0.034785
    13  C    0.000008  -0.010153   0.004719  -0.046178   0.367382   0.368630
    14  C   -0.000043  -0.005333  -0.002808  -0.043235  -0.004140   0.005662
    15  H   -0.000097  -0.000003  -0.000023   0.000000   0.000000   0.000000
    16  H   -0.000027   0.001600   0.004603   0.000001   0.000001  -0.000001
    17  H    0.001167   0.005229  -0.002177   0.005365  -0.000050   0.000717
    18  H    0.000006  -0.003824   0.004739  -0.000135  -0.000035   0.005855
    19  H    0.000000   0.004516  -0.000026   0.000008  -0.000002   0.000013
    20  H    0.000000   0.000001   0.000000   0.000000   0.000000   0.000000
    21  H    0.000000   0.000001   0.000000   0.000000   0.000000   0.000000
    22  H    0.000000  -0.000004   0.000000   0.000000   0.000000   0.000004
    23  H   -0.042700  -0.000592   0.006337  -0.000524  -0.000003  -0.000013
    24  H   -0.018463  -0.000057   0.002764  -0.000022   0.000000   0.000000
    25  H    0.526794   0.000042   0.002540   0.000729   0.000000  -0.000001
    26  H    0.000042   0.633417  -0.024702   0.006244   0.000011   0.000000
    27  H    0.002540  -0.024702   0.558178  -0.002610  -0.000125  -0.000107
    28  H    0.000729   0.006244  -0.002610   0.625645  -0.003211  -0.003025
    29  H    0.000000   0.000011  -0.000125  -0.003211   0.570991  -0.024457
    30  H   -0.000001   0.000000  -0.000107  -0.003025  -0.024457   0.571434
    31  H    0.000000   0.006608   0.000076   0.005786  -0.028113  -0.031001
    32  H    0.000000  -0.000018   0.000004  -0.003100   0.004721  -0.000044
    33  H    0.000036  -0.000349   0.006534  -0.003120  -0.000052  -0.000229
    34  H    0.000001   0.005877  -0.000419   0.005574  -0.000252  -0.000007
              31         32         33         34
     1  C   -0.000001   0.000000   0.000000   0.000000
     2  N    0.000000   0.000000   0.000000   0.000000
     3  C   -0.000079   0.000002   0.000000  -0.000003
     4  C   -0.001128  -0.000190   0.000044   0.000100
     5  O    0.000000   0.000000   0.000000   0.000000
     6  N   -0.000013   0.000000   0.000000  -0.000001
     7  C    0.000000   0.000000   0.000000   0.000000
     8  C    0.000000   0.000000   0.000001   0.000000
     9  O    0.000000   0.000000   0.000000   0.000000
    10  C    0.000002   0.000002  -0.000024   0.000000
    11  C   -0.006647   0.005357  -0.006408  -0.008026
    12  C   -0.037653  -0.031362  -0.032526  -0.034653
    13  C    0.369015  -0.004231   0.005842  -0.007005
    14  C   -0.006335   0.366486   0.367698   0.370923
    15  H    0.000000   0.000000   0.000000   0.000000
    16  H    0.000003   0.000001   0.000003  -0.000002
    17  H    0.000132   0.000001  -0.000007   0.000008
    18  H    0.000890  -0.000001  -0.000003   0.000001
    19  H    0.000451   0.000000   0.000000  -0.000001
    20  H    0.000000   0.000000   0.000000   0.000000
    21  H    0.000000   0.000000   0.000000   0.000000
    22  H    0.000000   0.000000   0.000000   0.000000
    23  H   -0.000013  -0.000007  -0.000412   0.000016
    24  H    0.000000   0.000000   0.000004   0.000000
    25  H    0.000000   0.000000   0.000036   0.000001
    26  H    0.006608  -0.000018  -0.000349   0.005877
    27  H    0.000076   0.000004   0.006534  -0.000419
    28  H    0.005786  -0.003100  -0.003120   0.005574
    29  H   -0.028113   0.004721  -0.000052  -0.000252
    30  H   -0.031001  -0.000044  -0.000229  -0.000007
    31  H    0.593352  -0.000250  -0.000008   0.006197
    32  H   -0.000250   0.576530  -0.026731  -0.028639
    33  H   -0.000008  -0.026731   0.577424  -0.028671
    34  H    0.006197  -0.028639  -0.028671   0.584556
 Mulliken charges:
               1
     1  C    0.585192
     2  N   -0.602234
     3  C   -0.014506
     4  C   -0.318280
     5  O   -0.508168
     6  N   -0.604060
     7  C   -0.310015
     8  C    0.588376
     9  O   -0.506615
    10  C   -0.509600
    11  C   -0.277683
    12  C   -0.063286
    13  C   -0.441725
    14  C   -0.433202
    15  H    0.351874
    16  H    0.163645
    17  H    0.176715
    18  H    0.161620
    19  H    0.326148
    20  H    0.214457
    21  H    0.156511
    22  H    0.155590
    23  H    0.069490
    24  H    0.175223
    25  H    0.174959
    26  H    0.113474
    27  H    0.210174
    28  H    0.126380
    29  H    0.143949
    30  H    0.150015
    31  H    0.128730
    32  H    0.141471
    33  H    0.140955
    34  H    0.134425
 Sum of Mulliken charges =   0.00000
 Mulliken charges with hydrogens summed into heavy atoms:
               1
     1  C    0.585192
     2  N   -0.250360
     3  C    0.149139
     4  C    0.020055
     5  O   -0.508168
     6  N   -0.277912
     7  C    0.216543
     8  C    0.588376
     9  O   -0.506615
    10  C   -0.089928
    11  C    0.045965
    12  C    0.063094
    13  C   -0.019031
    14  C   -0.016352
 Electronic spatial extent (au):  <R**2>=           3690.8137
 Charge=              0.0000 electrons
 Dipole moment (field-independent basis, Debye):
    X=              3.3833    Y=             -5.7587    Z=             -1.9231  Tot=              6.9504
 Quadrupole moment (field-independent basis, Debye-Ang):
   XX=            -92.9034   YY=            -98.9029   ZZ=            -85.7993
   XY=              9.7170   XZ=              3.2327   YZ=             -1.4759
 Traceless Quadrupole moment (field-independent basis, Debye-Ang):
   XX=             -0.3682   YY=             -6.3677   ZZ=              6.7359
   XY=              9.7170   XZ=              3.2327   YZ=             -1.4759
 Octapole moment (field-independent basis, Debye-Ang**2):
  XXX=             -1.5529  YYY=            -99.1866  ZZZ=              0.7362  XYY=              4.9797
  XXY=             -5.2736  XXZ=              0.6759  XZZ=             -7.0029  YZZ=              3.2843
  YYZ=            -19.0354  XYZ=             -0.0369
 Hexadecapole moment (field-independent basis, Debye-Ang**3):
 XXXX=          -2591.9502 YYYY=          -2330.0379 ZZZZ=           -282.4538 XXXY=             20.9102
 XXXZ=             36.6131 YYYX=            164.7444 YYYZ=            -33.9954 ZZZX=             -1.6583
 ZZZY=              7.7564 XXYY=           -733.7700 XXZZ=           -469.7788 YYZZ=           -374.1822
 XXYZ=              4.3767 YYXZ=             10.1394 ZZXY=              5.2426
 N-N= 9.712399380468D+02 E-N=-3.461222320780D+03  KE= 6.472681528940D+02
 Calling FoFJK, ICntrl=      2127 FMM=F ISym2X=0 I1Cent= 0 IOpClX= 0 NMat=1 NMatS=1 NMatT=0.
 ***** Axes restored to original set *****
 -------------------------------------------------------------------
 Center     Atomic                   Forces (Hartrees/Bohr)
 Number     Number              X              Y              Z
 -------------------------------------------------------------------
      1        6           0.011904973    0.006383969   -0.008403645
      2        7           0.004419416    0.018891185   -0.007346161
      3        6          -0.005036621   -0.005370189   -0.003796423
      4        6           0.005860537    0.008549760    0.006427741
      5        8          -0.005170996   -0.036189733    0.001081292
      6        7          -0.013665274    0.003511156   -0.000173614
      7        6           0.013586159    0.000532859    0.000296027
      8        6           0.000550789   -0.009944845   -0.001681936
      9        8          -0.026360254   -0.022186648    0.000441018
     10        6           0.004597417    0.004692373   -0.009624092
     11        6           0.016006661    0.014366368    0.015814416
     12        6           0.002267595    0.007790609   -0.003466881
     13        6           0.001609205   -0.002574297    0.013573114
     14        6          -0.007282954    0.007475953    0.002491731
     15        1           0.000970887    0.000538473   -0.001465714
     16        1           0.004115393   -0.005570030    0.005117338
     17        1           0.014646966    0.002143763   -0.002997702
     18        1          -0.015198120   -0.000108794   -0.005488478
     19        1           0.001295458   -0.001845388   -0.000284299
     20        1           0.000008576    0.016729842    0.000012075
     21        1          -0.002804659   -0.004253793    0.009711606
     22        1          -0.002627863   -0.004386550   -0.009672529
     23        1          -0.057041414   -0.031583799   -0.013051941
     24        1           0.003451173   -0.004413329    0.011083862
     25        1           0.005311660   -0.002437536   -0.010550250
     26        1          -0.007306567    0.000197338    0.002887860
     27        1           0.041151530    0.029537337    0.012810766
     28        1           0.006257265    0.001335845   -0.005238541
     29        1           0.005323515   -0.007529667   -0.007791225
     30        1           0.004722280    0.016426997    0.002941275
     31        1          -0.005952447   -0.003316418    0.007895744
     32        1           0.000264975   -0.001791184   -0.011916816
     33        1           0.009813056    0.003832814    0.004973959
     34        1          -0.009688315    0.000565562    0.005390423
 -------------------------------------------------------------------
 Cartesian Forces:  Max     0.057041414 RMS     0.012037366

 GradGradGradGradGradGradGradGradGradGradGradGradGradGradGradGradGradGrad
 Berny optimization.
 FormGI is forming the generalized inverse of G from B-inverse, IUseBI=4.
 Internal  Forces:  Max     0.244308154 RMS     0.034442439
 Search for a local minimum.
 Step number   1 out of a maximum of  180
 All quantities printed in internal units (Hartrees-Bohrs-Radians)
 Mixed Optimization -- RFO/linear search
 Second derivative matrix not updated -- first step.
 ITU=  0
     Eigenvalues ---    0.00461   0.00461   0.00462   0.00462   0.00462
     Eigenvalues ---    0.00646   0.00647   0.01029   0.01030   0.01229
     Eigenvalues ---    0.01229   0.01459   0.01459   0.02102   0.02102
     Eigenvalues ---    0.04013   0.04013   0.04108   0.04771   0.04772
     Eigenvalues ---    0.05056   0.05058   0.05059   0.05237   0.05865
     Eigenvalues ---    0.05865   0.05868   0.05869   0.06408   0.07469
     Eigenvalues ---    0.07473   0.07682   0.07686   0.07777   0.07777
     Eigenvalues ---    0.11765   0.11765   0.16000   0.16000   0.16000
     Eigenvalues ---    0.16000   0.16000   0.16000   0.16000   0.16000
     Eigenvalues ---    0.16000   0.16000   0.16000   0.16000   0.16000
     Eigenvalues ---    0.16000   0.16133   0.16145   0.16923   0.18060
     Eigenvalues ---    0.21952   0.21952   0.22000   0.22000   0.25000
     Eigenvalues ---    0.25000   0.25000   0.25000   0.30074   0.30078
     Eigenvalues ---    0.30080   0.30081   0.30083   0.31448   0.31449
     Eigenvalues ---    0.32277   0.32278   0.32280   0.32281   0.32281
     Eigenvalues ---    0.32281   0.32283   0.32285   0.32285   0.32286
     Eigenvalues ---    0.32286   0.32287   0.32287   0.32287   0.32288
     Eigenvalues ---    0.32289   0.32290   0.32291   0.38236   0.38242
     Eigenvalues ---    0.45639   0.45649   0.51175   0.51177   1.00904
     Eigenvalues ---    1.00934
 RFO step:  Lambda=-3.60577546D-01 EMin= 4.60918067D-03
 Linear search not attempted -- first point.
 Maximum step size (   0.300) exceeded in Quadratic search.
    -- Step size scaled by   0.425
 Iteration  1 RMS(Cart)=  0.22756469 RMS(Int)=  0.01165557
 Iteration  2 RMS(Cart)=  0.07675649 RMS(Int)=  0.00103170
 Iteration  3 RMS(Cart)=  0.00236642 RMS(Int)=  0.00039946
 Iteration  4 RMS(Cart)=  0.00000332 RMS(Int)=  0.00039946
 Iteration  5 RMS(Cart)=  0.00000000 RMS(Int)=  0.00039946
 Variable       Old X    -DE/DX   Delta X   Delta X   Delta X     New X
                                 (Linear)    (Quad)   (Total)
    R1        2.85164   0.01195   0.00000   0.00752   0.00752   2.85916
    R2        2.28279   0.03619   0.00000   0.01122   0.01122   2.29401
    R3        2.58696   0.00146   0.00000   0.00071   0.00071   2.58767
    R4        2.74014   0.07888   0.00000   0.04509   0.04509   2.78523
    R5        2.58697   0.04352   0.00000   0.02119   0.02119   2.60817
    R6        1.91229  -0.00036   0.00000  -0.00019  -0.00019   1.91211
    R7        2.87809   0.07217   0.00000   0.04635   0.04635   2.92443
    R8        2.10321  -0.00760   0.00000  -0.00472  -0.00472   2.09849
    R9        2.87802   0.04760   0.00000   0.03057   0.03057   2.90859
   R10        2.10315  -0.01386   0.00000  -0.00861  -0.00861   2.09454
   R11        2.10332  -0.01560   0.00000  -0.00970  -0.00970   2.09363
   R12        2.74023   0.00276   0.00000   0.00158   0.00158   2.74181
   R13        1.91240  -0.00185   0.00000  -0.00096  -0.00096   1.91144
   R14        2.10317  -0.01644   0.00000  -0.01022  -0.01022   2.09296
   R15        2.10339  -0.01044   0.00000  -0.00649  -0.00649   2.09690
   R16        2.10325  -0.01034   0.00000  -0.00642  -0.00642   2.09683
   R17        2.28267   0.03445   0.00000   0.01068   0.01068   2.29335
   R18        2.85166  -0.02520   0.00000  -0.01585  -0.01585   2.83581
   R19        2.10319  -0.06519   0.00000  -0.04051  -0.04051   2.06268
   R20        2.10334  -0.01192   0.00000  -0.00741  -0.00741   2.09593
   R21        2.10330  -0.01199   0.00000  -0.00745  -0.00745   2.09584
   R22        2.87798   0.01961   0.00000   0.01259   0.01259   2.89057
   R23        2.10325  -0.00733   0.00000  -0.00456  -0.00456   2.09870
   R24        2.10340  -0.03769   0.00000  -0.02342  -0.02342   2.07998
   R25        2.87804   0.01344   0.00000   0.00863   0.00863   2.88667
   R26        2.87816   0.01001   0.00000   0.00643   0.00643   2.88459
   R27        2.10322  -0.00819   0.00000  -0.00509  -0.00509   2.09813
   R28        2.10318  -0.01097   0.00000  -0.00682  -0.00682   2.09636
   R29        2.10335  -0.01453   0.00000  -0.00903  -0.00903   2.09432
   R30        2.10332  -0.00992   0.00000  -0.00616  -0.00616   2.09716
   R31        2.10323  -0.01077   0.00000  -0.00669  -0.00669   2.09654
   R32        2.10323  -0.01042   0.00000  -0.00647  -0.00647   2.09676
   R33        2.10321  -0.01049   0.00000  -0.00652  -0.00652   2.09670
    A1        2.09438   0.00688   0.00000   0.00479   0.00479   2.09917
    A2        2.09439  -0.02558   0.00000  -0.01779  -0.01779   2.07660
    A3        2.09441   0.01870   0.00000   0.01301   0.01301   2.10742
    A4        2.09440   0.24431   0.00000   0.17873   0.17872   2.27312
    A5        2.09430  -0.12316   0.00000  -0.09018  -0.09018   2.00412
    A6        2.09448  -0.12115   0.00000  -0.08855  -0.08855   2.00593
    A7        1.91117  -0.07614   0.00000  -0.06398  -0.06256   1.84861
    A8        1.91012  -0.04890   0.00000  -0.04061  -0.03894   1.87118
    A9        1.91042   0.01743   0.00000   0.00690   0.00652   1.91695
   A10        1.91012   0.11308   0.00000   0.09045   0.08909   1.99921
   A11        1.91048   0.00274   0.00000   0.00853   0.00672   1.91720
   A12        1.91148  -0.00825   0.00000  -0.00131  -0.00304   1.90844
   A13        1.91118   0.10113   0.00000   0.07526   0.07519   1.98637
   A14        1.91009  -0.03091   0.00000  -0.01979  -0.02122   1.88887
   A15        1.91036  -0.02665   0.00000  -0.02111  -0.02013   1.89022
   A16        1.91018   0.00369   0.00000   0.01098   0.01049   1.92067
   A17        1.91045  -0.06023   0.00000  -0.05090  -0.05030   1.86015
   A18        1.91155   0.01303   0.00000   0.00561   0.00525   1.91680
   A19        2.09433   0.01141   0.00000   0.00834   0.00834   2.10267
   A20        2.09443  -0.00446   0.00000  -0.00316  -0.00316   2.09127
   A21        2.09443  -0.00694   0.00000  -0.00518  -0.00518   2.08924
   A22        1.91119  -0.00661   0.00000  -0.00549  -0.00549   1.90571
   A23        1.91011   0.00517   0.00000   0.00427   0.00426   1.91437
   A24        1.91040   0.00552   0.00000   0.00456   0.00456   1.91496
   A25        1.91012  -0.00014   0.00000  -0.00022  -0.00022   1.90990
   A26        1.91051  -0.00026   0.00000  -0.00031  -0.00031   1.91021
   A27        1.91146  -0.00369   0.00000  -0.00281  -0.00282   1.90864
   A28        2.09439  -0.04811   0.00000  -0.03347  -0.03348   2.06091
   A29        2.09436   0.09680   0.00000   0.06734   0.06732   2.16168
   A30        2.09443  -0.04869   0.00000  -0.03387  -0.03389   2.06054
   A31        1.91119   0.00276   0.00000   0.00241   0.00240   1.91358
   A32        1.91010  -0.00474   0.00000  -0.00431  -0.00431   1.90579
   A33        1.91049   0.00281   0.00000   0.00259   0.00258   1.91307
   A34        1.91010  -0.00360   0.00000  -0.00352  -0.00353   1.90657
   A35        1.91046   0.00421   0.00000   0.00433   0.00431   1.91477
   A36        1.91147  -0.00145   0.00000  -0.00149  -0.00149   1.90998
   A37        1.91113   0.01882   0.00000   0.01455   0.01454   1.92567
   A38        1.91019  -0.01032   0.00000  -0.00802  -0.00796   1.90222
   A39        1.91037   0.02014   0.00000   0.02016   0.02026   1.93063
   A40        1.91018  -0.00366   0.00000  -0.00350  -0.00352   1.90665
   A41        1.91050  -0.02110   0.00000  -0.01786  -0.01808   1.89242
   A42        1.91144  -0.00388   0.00000  -0.00532  -0.00541   1.90603
   A43        1.91116   0.01402   0.00000   0.01201   0.01201   1.92317
   A44        1.91005  -0.00363   0.00000  -0.00262  -0.00262   1.90743
   A45        1.91050  -0.00422   0.00000  -0.00369  -0.00369   1.90681
   A46        1.91013  -0.00504   0.00000  -0.00372  -0.00373   1.90640
   A47        1.91054  -0.00275   0.00000  -0.00234  -0.00234   1.90820
   A48        1.91142   0.00163   0.00000   0.00037   0.00035   1.91178
   A49        1.91112   0.00427   0.00000   0.00338   0.00337   1.91449
   A50        1.91003   0.01199   0.00000   0.00989   0.00987   1.91990
   A51        1.91047   0.00183   0.00000   0.00149   0.00148   1.91195
   A52        1.91020  -0.00812   0.00000  -0.00662  -0.00664   1.90356
   A53        1.91054  -0.00443   0.00000  -0.00383  -0.00383   1.90671
   A54        1.91144  -0.00554   0.00000  -0.00430  -0.00432   1.90713
   A55        1.91108   0.00622   0.00000   0.00510   0.00509   1.91617
   A56        1.91020   0.00590   0.00000   0.00483   0.00482   1.91502
   A57        1.91045   0.00288   0.00000   0.00231   0.00230   1.91276
   A58        1.91015  -0.00553   0.00000  -0.00442  -0.00444   1.90571
   A59        1.91042  -0.00478   0.00000  -0.00393  -0.00394   1.90648
   A60        1.91150  -0.00469   0.00000  -0.00388  -0.00388   1.90762
    D1        0.00000  -0.03223   0.00000  -0.02458  -0.02521  -0.02521
    D2        2.09379   0.02974   0.00000   0.02218   0.02293   2.11672
    D3       -2.09440   0.00036   0.00000  -0.00007  -0.00018  -2.09458
    D4        3.14159  -0.03171   0.00000  -0.02399  -0.02462   3.11697
    D5       -1.04781   0.03025   0.00000   0.02277   0.02352  -1.02429
    D6        1.04719   0.00088   0.00000   0.00052   0.00041   1.04760
    D7        3.14159  -0.00053   0.00000  -0.00060  -0.00060   3.14099
    D8        0.00000  -0.00050   0.00000  -0.00056  -0.00056  -0.00056
    D9        0.00000  -0.00002   0.00000  -0.00001  -0.00001  -0.00001
   D10        3.14159   0.00002   0.00000   0.00003   0.00003  -3.14157
   D11        3.14159   0.01447   0.00000   0.01908   0.01833  -3.12326
   D12        1.04781   0.05168   0.00000   0.05256   0.05372   1.10152
   D13       -1.04722  -0.00913   0.00000  -0.00643  -0.00684  -1.05406
   D14        0.00000   0.00970   0.00000   0.01367   0.01292   0.01292
   D15       -2.09379   0.04690   0.00000   0.04715   0.04831  -2.04548
   D16        2.09437  -0.01391   0.00000  -0.01184  -0.01225   2.08213
   D17        3.14159   0.01290   0.00000   0.01418   0.01418  -3.12741
   D18        0.00000   0.02266   0.00000   0.02531   0.02531   0.02531
   D19        0.00000   0.01768   0.00000   0.01959   0.01959   0.01959
   D20        3.14159   0.02744   0.00000   0.03072   0.03072  -3.11087
   D21        2.09430  -0.03615   0.00000  -0.04367  -0.04313   2.05117
   D22       -2.09505   0.01129   0.00000   0.00370   0.00395  -2.09110
   D23       -0.00004  -0.00797   0.00000  -0.01446  -0.01393  -0.01397
   D24       -2.09446  -0.09011   0.00000  -0.09152  -0.09202  -2.18648
   D25       -0.00062  -0.04266   0.00000  -0.04415  -0.04493  -0.04556
   D26        2.09439  -0.06193   0.00000  -0.06231  -0.06282   2.03157
   D27       -0.00005  -0.02247   0.00000  -0.02641  -0.02616  -0.02621
   D28        2.09379   0.02498   0.00000   0.02096   0.02092   2.11471
   D29       -2.09439   0.00571   0.00000   0.00279   0.00304  -2.09134
   D30        3.14159   0.00900   0.00000   0.01143   0.01219  -3.12941
   D31       -1.04773   0.00971   0.00000   0.01113   0.01182  -1.03591
   D32        1.04722   0.01097   0.00000   0.01205   0.01265   1.05987
   D33        1.04780  -0.01727   0.00000  -0.01711  -0.01740   1.03040
   D34       -3.14151  -0.01656   0.00000  -0.01740  -0.01777   3.12390
   D35       -1.04656  -0.01530   0.00000  -0.01649  -0.01694  -1.06351
   D36       -1.04732   0.00138   0.00000   0.00046   0.00022  -1.04710
   D37        1.04655   0.00209   0.00000   0.00016  -0.00015   1.04640
   D38        3.14150   0.00335   0.00000   0.00108   0.00068  -3.14101
   D39        0.00000   0.00005   0.00000   0.00005   0.00005   0.00005
   D40        2.09379  -0.00100   0.00000  -0.00097  -0.00097   2.09282
   D41       -2.09445   0.00103   0.00000   0.00100   0.00101  -2.09344
   D42        3.14159   0.00002   0.00000   0.00001   0.00001  -3.14158
   D43       -1.04780  -0.00103   0.00000  -0.00100  -0.00101  -1.04881
   D44        1.04714   0.00099   0.00000   0.00096   0.00097   1.04812
   D45        0.00000   0.00487   0.00000   0.00487   0.00487   0.00487
   D46        2.09375  -0.00075   0.00000  -0.00062  -0.00061   2.09314
   D47       -2.09443  -0.00370   0.00000  -0.00350  -0.00350  -2.09794
   D48        3.14159   0.01464   0.00000   0.01599   0.01599  -3.12560
   D49       -1.04784   0.00902   0.00000   0.01051   0.01051  -1.03733
   D50        1.04716   0.00606   0.00000   0.00763   0.00762   1.05478
   D51        1.04731  -0.00695   0.00000  -0.00692  -0.00687   1.04045
   D52        3.14106  -0.00676   0.00000  -0.00574  -0.00569   3.13537
   D53       -1.04720  -0.00957   0.00000  -0.00915  -0.00909  -1.05629
   D54       -1.04656  -0.00358   0.00000  -0.00386  -0.00382  -1.05038
   D55        1.04718  -0.00339   0.00000  -0.00268  -0.00264   1.04454
   D56       -3.14108  -0.00620   0.00000  -0.00609  -0.00604   3.13606
   D57       -3.14158   0.01632   0.00000   0.01574   0.01564  -3.12594
   D58       -1.04784   0.01651   0.00000   0.01691   0.01682  -1.03102
   D59        1.04709   0.01370   0.00000   0.01350   0.01341   1.06050
   D60        3.14154  -0.00159   0.00000  -0.00135  -0.00136   3.14018
   D61       -1.04785  -0.00158   0.00000  -0.00134  -0.00134  -1.04919
   D62        1.04707   0.00010   0.00000   0.00036   0.00036   1.04742
   D63        1.04785  -0.00264   0.00000  -0.00321  -0.00321   1.04464
   D64       -3.14155  -0.00262   0.00000  -0.00319  -0.00319   3.13845
   D65       -1.04663  -0.00095   0.00000  -0.00149  -0.00149  -1.04811
   D66       -1.04715   0.00013   0.00000   0.00005   0.00005  -1.04710
   D67        1.04664   0.00015   0.00000   0.00007   0.00007   1.04671
   D68        3.14156   0.00182   0.00000   0.00177   0.00177  -3.13986
   D69       -3.14153  -0.00582   0.00000  -0.00530  -0.00530   3.13636
   D70        1.04785  -0.00646   0.00000  -0.00596  -0.00596   1.04189
   D71       -1.04723  -0.00609   0.00000  -0.00558  -0.00558  -1.05281
   D72       -1.04715   0.00605   0.00000   0.00552   0.00552  -1.04164
   D73       -3.14096   0.00540   0.00000   0.00486   0.00486  -3.13611
   D74        1.04714   0.00577   0.00000   0.00524   0.00523   1.05238
   D75        1.04730   0.00058   0.00000   0.00060   0.00060   1.04790
   D76       -1.04651  -0.00007   0.00000  -0.00006  -0.00006  -1.04657
   D77       -3.14159   0.00031   0.00000   0.00031   0.00031  -3.14127
         Item               Value     Threshold  Converged?
 Maximum Force            0.244308     0.000450     NO 
 RMS     Force            0.034442     0.000300     NO 
 Maximum Displacement     1.365030     0.001800     NO 
 RMS     Displacement     0.298855     0.001200     NO 
 Predicted change in Energy=-1.422952D-01
 GradGradGradGradGradGradGradGradGradGradGradGradGradGradGradGradGradGrad

                          Input orientation:                          
 ---------------------------------------------------------------------
 Center     Atomic      Atomic             Coordinates (Angstroms)
 Number     Number       Type             X           Y           Z
 ---------------------------------------------------------------------
      1          6           0        1.081361   -1.965639   -0.821759
      2          7           0       -1.290988   -2.187741   -0.907226
[...]
     8  C    0.002419   0.269794  -0.015839  -0.000846   0.000314  -0.000062
     9  O   -0.000103  -0.096545   0.003557  -0.000008   0.000000   0.000000
    10  C   -0.000271  -0.139550   0.001909  -0.002920  -0.000018  -0.000012
    11  C   -0.001929   0.004525  -0.030885   0.344132  -0.000535   0.000289
    12  C    0.000014  -0.000074   0.003372  -0.030439  -0.000007   0.000173
    13  C   -0.000035   0.000000   0.000259  -0.003996  -0.000002   0.000001
    14  C    0.000004   0.000001  -0.000096   0.003778   0.000000   0.000000
    15  H   -0.004918   0.274708  -0.040867   0.000609   0.023286   0.001195
    16  H   -0.038387  -0.042489   0.353011  -0.050728   0.003117   0.003760
    17  H    0.004631  -0.002064  -0.036309   0.366951   0.000008  -0.000186
    18  H   -0.007003   0.000029  -0.038187   0.365097   0.006499   0.000537
    19  H   -0.017603  -0.000041   0.001469  -0.000820   0.003354   0.301417
    20  H   -0.000939   0.000003   0.001173  -0.000022   0.020606  -0.039952
    21  H    0.001055   0.000008  -0.000145  -0.000009   0.000401  -0.039702
    22  H    0.001555  -0.000001  -0.000178   0.000056   0.000491  -0.041988
    23  H    0.000006   0.003141  -0.002729   0.000230   0.000000  -0.000006
    24  H    0.000000   0.004777   0.000122   0.000023   0.000000   0.000000
    25  H    0.000210   0.001876   0.000489  -0.000130   0.000000  -0.000001
    26  H    0.006361  -0.000024  -0.005557  -0.036005   0.000023   0.001554
    27  H   -0.001841   0.000096  -0.003125  -0.046770   0.000005   0.000415
    28  H    0.000004  -0.000004  -0.000076  -0.005256   0.000000  -0.000003
    29  H    0.000000   0.000000  -0.000002   0.000114   0.000000   0.000000
    30  H   -0.000002   0.000004  -0.000007   0.002785  -0.000003   0.000000
    31  H    0.000003   0.000000  -0.000038  -0.000648   0.000001  -0.000003
    32  H    0.000000   0.000000   0.000001  -0.000130   0.000000   0.000000
    33  H    0.000000   0.000000  -0.000003   0.000016   0.000000   0.000000
    34  H   -0.000002   0.000000   0.000000   0.000034   0.000000  -0.000004
               7          8          9         10         11         12
     1  C   -0.025807   0.002419  -0.000103  -0.000271  -0.001929   0.000014
     2  N   -0.000125   0.269794  -0.096545  -0.139550   0.004525  -0.000074
     3  C    0.006151  -0.015839   0.003557   0.001909  -0.030885   0.003372
     4  C   -0.000250  -0.000846  -0.000008  -0.002920   0.344132  -0.030439
     5  O   -0.007892   0.000314   0.000000  -0.000018  -0.000535  -0.000007
     6  N    0.262626  -0.000062   0.000000  -0.000012   0.000289   0.000173
     7  C    4.972293   0.000000   0.000000   0.000000  -0.000067  -0.000003
     8  C    0.000000   4.290432   0.627409   0.319918   0.000016  -0.000002
     9  O    0.000000   0.627409   8.037360  -0.088483   0.000000   0.000000
    10  C    0.000000   0.319918  -0.088483   5.400536   0.000017   0.000001
    11  C   -0.000067   0.000016   0.000000   0.000017   5.071373   0.381098
    12  C   -0.000003  -0.000002   0.000000   0.000001   0.381098   4.836527
    13  C    0.000000   0.000000   0.000000   0.000000  -0.051035   0.383913
    14  C    0.000000   0.000000   0.000000   0.000000  -0.048064   0.378729
    15  H   -0.000010  -0.006516   0.007210   0.007782  -0.000016   0.000002
    16  H   -0.000003  -0.006828   0.000029   0.005852  -0.001992  -0.000141
    17  H    0.000006   0.002350  -0.000103  -0.000902  -0.039889  -0.003860
    18  H    0.000005  -0.000282  -0.000007   0.000085  -0.029625  -0.004789
    19  H   -0.030849  -0.000009   0.000000   0.000000   0.000813  -0.000031
    20  H    0.377442   0.000000   0.000000   0.000000   0.000000   0.000000
    21  H    0.381779   0.000000   0.000000   0.000000   0.000005   0.000000
    22  H    0.380746   0.000000   0.000000   0.000000   0.000032  -0.000004
    23  H    0.000000  -0.019305   0.001087   0.347884  -0.000010   0.000000
    24  H    0.000000  -0.020727   0.006235   0.356068   0.000000   0.000000
    25  H    0.000000  -0.017367   0.001883   0.341469  -0.000057  -0.000012
    26  H    0.000204   0.000003   0.000000  -0.000003   0.363822  -0.034123
    27  H    0.000010  -0.000006   0.000000   0.000011   0.364705  -0.035927
    28  H    0.000000  -0.000001   0.000000  -0.000003  -0.049729   0.380224
    29  H    0.000000   0.000000   0.000000   0.000000   0.005154  -0.030436
    30  H    0.000000   0.000001   0.000000   0.000000  -0.005301  -0.028690
    31  H    0.000000   0.000000   0.000000   0.000000  -0.005966  -0.035539
    32  H    0.000000   0.000000   0.000000   0.000000   0.004811  -0.028011
    33  H    0.000000   0.000000   0.000000   0.000000  -0.004582  -0.030247
    34  H    0.000000   0.000000   0.000000   0.000000  -0.006350  -0.034230
              13         14         15         16         17         18
     1  C   -0.000035   0.000004  -0.004918  -0.038387   0.004631  -0.007003
     2  N    0.000000   0.000001   0.274708  -0.042489  -0.002064   0.000029
     3  C    0.000259  -0.000096  -0.040867   0.353011  -0.036309  -0.038187
     4  C   -0.003996   0.003778   0.000609  -0.050728   0.366951   0.365097
     5  O   -0.000002   0.000000   0.023286   0.003117   0.000008   0.006499
     6  N    0.000001   0.000000   0.001195   0.003760  -0.000186   0.000537
     7  C    0.000000   0.000000  -0.000010  -0.000003   0.000006   0.000005
     8  C    0.000000   0.000000  -0.006516  -0.006828   0.002350  -0.000282
     9  O    0.000000   0.000000   0.007210   0.000029  -0.000103  -0.000007
    10  C    0.000000   0.000000   0.007782   0.005852  -0.000902   0.000085
    11  C   -0.051035  -0.048064  -0.000016  -0.001992  -0.039889  -0.029625
    12  C    0.383913   0.378729   0.000002  -0.000141  -0.003860  -0.004789
    13  C    5.108009  -0.054363   0.000000   0.000001  -0.001032   0.002512
    14  C   -0.054363   5.110321   0.000000  -0.000004   0.000123   0.000016
    15  H    0.000000   0.000000   0.383836   0.004854  -0.000416   0.002218
    16  H    0.000001  -0.000004   0.004854   0.623661  -0.004355   0.006351
    17  H   -0.001032   0.000123  -0.000416  -0.004355   0.590386  -0.033287
    18  H    0.002512   0.000016   0.002218   0.006351  -0.033287   0.560932
    19  H    0.000002  -0.000001  -0.000052   0.003990  -0.000006   0.000017
    20  H    0.000000   0.000000  -0.000031  -0.000051   0.000000  -0.000018
    21  H    0.000000   0.000000   0.000001  -0.000016   0.000000   0.000000
    22  H    0.000000   0.000000   0.000000  -0.000009   0.000000   0.000001
    23  H    0.000000   0.000000  -0.000225   0.002912  -0.000001  -0.000003
    24  H    0.000000   0.000000  -0.000132   0.000008  -0.000032   0.000001
    25  H    0.000001   0.000000  -0.000274  -0.001279   0.005253  -0.000051
    26  H   -0.007567  -0.004131   0.000004  -0.000381   0.005591  -0.005428
    27  H    0.005815  -0.004371   0.000002   0.006220  -0.003819   0.005418
    28  H   -0.047537  -0.045372   0.000000   0.000002   0.006206  -0.000164
    29  H    0.371481  -0.004476   0.000000   0.000000  -0.000041  -0.000072
    30  H    0.371785   0.005038  -0.000002  -0.000002   0.000670   0.002059
    31  H    0.372754  -0.005072   0.000000   0.000000   0.000112   0.000442
    32  H   -0.003618   0.370007   0.000000   0.000000  -0.000002   0.000002
    33  H    0.005275   0.368989   0.000000   0.000000  -0.000002  -0.000001
    34  H   -0.005523   0.371939   0.000000   0.000001   0.000010   0.000004
              19         20         21         22         23         24
     1  C   -0.017603  -0.000939   0.001055   0.001555   0.000006   0.000000
     2  N   -0.000041   0.000003   0.000008  -0.000001   0.003141   0.004777
     3  C    0.001469   0.001173  -0.000145  -0.000178  -0.002729   0.000122
     4  C   -0.000820  -0.000022  -0.000009   0.000056   0.000230   0.000023
     5  O    0.003354   0.020606   0.000401   0.000491   0.000000   0.000000
     6  N    0.301417  -0.039952  -0.039702  -0.041988  -0.000006   0.000000
     7  C   -0.030849   0.377442   0.381779   0.380746   0.000000   0.000000
     8  C   -0.000009   0.000000   0.000000   0.000000  -0.019305  -0.020727
     9  O    0.000000   0.000000   0.000000   0.000000   0.001087   0.006235
    10  C    0.000000   0.000000   0.000000   0.000000   0.347884   0.356068
    11  C    0.000813   0.000000   0.000005   0.000032  -0.000010   0.000000
    12  C   -0.000031   0.000000   0.000000  -0.000004   0.000000   0.000000
    13  C    0.000002   0.000000   0.000000   0.000000   0.000000   0.000000
    14  C   -0.000001   0.000000   0.000000   0.000000   0.000000   0.000000
    15  H   -0.000052  -0.000031   0.000001   0.000000  -0.000225  -0.000132
    16  H    0.003990  -0.000051  -0.000016  -0.000009   0.002912   0.000008
    17  H   -0.000006   0.000000   0.000000   0.000000  -0.000001  -0.000032
    18  H    0.000017  -0.000018   0.000000   0.000001  -0.000003   0.000001
    19  H    0.406126   0.004105  -0.000953  -0.000884  -0.000012   0.000000
    20  H    0.004105   0.475433  -0.023666  -0.024396   0.000000   0.000000
    21  H   -0.000953  -0.023666   0.556337  -0.039294   0.000000   0.000000
    22  H   -0.000884  -0.024396  -0.039294   0.562202   0.000000   0.000000
    23  H   -0.000012   0.000000   0.000000   0.000000   0.551450  -0.020443
    24  H    0.000000   0.000000   0.000000   0.000000  -0.020443   0.507617
    25  H   -0.000002   0.000000   0.000000   0.000000  -0.029632  -0.021313
    26  H   -0.000045  -0.000013   0.000010   0.000103   0.000000   0.000000
    27  H    0.001549   0.000000   0.000000  -0.000011  -0.000006   0.000000
    28  H    0.000001   0.000000   0.000000   0.000000   0.000000   0.000000
    29  H    0.000000   0.000000   0.000000   0.000000   0.000000   0.000000
    30  H    0.000000   0.000000   0.000000   0.000000   0.000000   0.000000
    31  H    0.000000   0.000000   0.000000   0.000000   0.000000   0.000000
    32  H    0.000000   0.000000   0.000000   0.000000   0.000000   0.000000
    33  H    0.000001   0.000000   0.000000   0.000000   0.000000   0.000000
    34  H    0.000001   0.000000   0.000000   0.000002   0.000000   0.000000
              25         26         27         28         29         30
     1  C    0.000210   0.006361  -0.001841   0.000004   0.000000  -0.000002
     2  N    0.001876  -0.000024   0.000096  -0.000004   0.000000   0.000004
     3  C    0.000489  -0.005557  -0.003125  -0.000076  -0.000002  -0.000007
     4  C   -0.000130  -0.036005  -0.046770  -0.005256   0.000114   0.002785
     5  O    0.000000   0.000023   0.000005   0.000000   0.000000  -0.000003
     6  N   -0.000001   0.001554   0.000415  -0.000003   0.000000   0.000000
     7  C    0.000000   0.000204   0.000010   0.000000   0.000000   0.000000
     8  C   -0.017367   0.000003  -0.000006  -0.000001   0.000000   0.000001
     9  O    0.001883   0.000000   0.000000   0.000000   0.000000   0.000000
    10  C    0.341469  -0.000003   0.000011  -0.000003   0.000000   0.000000
    11  C   -0.000057   0.363822   0.364705  -0.049729   0.005154  -0.005301
    12  C   -0.000012  -0.034123  -0.035927   0.380224  -0.030436  -0.028690
    13  C    0.000001  -0.007567   0.005815  -0.047537   0.371481   0.371785
    14  C    0.000000  -0.004131  -0.004371  -0.045372  -0.004476   0.005038
    15  H   -0.000274   0.000004   0.000002   0.000000   0.000000  -0.000002
    16  H   -0.001279  -0.000381   0.006220   0.000002   0.000000  -0.000002
    17  H    0.005253   0.005591  -0.003819   0.006206  -0.000041   0.000670
    18  H   -0.000051  -0.005428   0.005418  -0.000164  -0.000072   0.002059
    19  H   -0.000002  -0.000045   0.001549   0.000001   0.000000   0.000000
    20  H    0.000000  -0.000013   0.000000   0.000000   0.000000   0.000000
    21  H    0.000000   0.000010   0.000000   0.000000   0.000000   0.000000
    22  H    0.000000   0.000103  -0.000011   0.000000   0.000000   0.000000
    23  H   -0.029632   0.000000  -0.000006   0.000000   0.000000   0.000000
    24  H   -0.021313   0.000000   0.000000   0.000000   0.000000   0.000000
    25  H    0.557295   0.000002   0.000088   0.000007   0.000000   0.000000
    26  H    0.000002   0.599795  -0.040131   0.006369  -0.000044  -0.000039
    27  H    0.000088  -0.040131   0.637409  -0.004150  -0.000172  -0.000059
    28  H    0.000007   0.006369  -0.004150   0.637823  -0.003127  -0.003509
    29  H    0.000000  -0.000044  -0.000172  -0.003127   0.574044  -0.029361
    30  H    0.000000  -0.000039  -0.000059  -0.003509  -0.029361   0.564442
    31  H    0.000000   0.005589  -0.000003   0.005872  -0.031019  -0.031022
    32  H    0.000000  -0.000071  -0.000016  -0.003421   0.004295  -0.000042
    33  H    0.000000  -0.000280   0.005313  -0.003240  -0.000003  -0.000186
    34  H    0.000000   0.005211  -0.000339   0.005853  -0.000237  -0.000034
              31         32         33         34
     1  C    0.000003   0.000000   0.000000  -0.000002
     2  N    0.000000   0.000000   0.000000   0.000000
     3  C   -0.000038   0.000001  -0.000003   0.000000
     4  C   -0.000648  -0.000130   0.000016   0.000034
     5  O    0.000001   0.000000   0.000000   0.000000
     6  N   -0.000003   0.000000   0.000000  -0.000004
     7  C    0.000000   0.000000   0.000000   0.000000
     8  C    0.000000   0.000000   0.000000   0.000000
     9  O    0.000000   0.000000   0.000000   0.000000
    10  C    0.000000   0.000000   0.000000   0.000000
    11  C   -0.005966   0.004811  -0.004582  -0.006350
    12  C   -0.035539  -0.028011  -0.030247  -0.034230
    13  C    0.372754  -0.003618   0.005275  -0.005523
    14  C   -0.005072   0.370007   0.368989   0.371939
    15  H    0.000000   0.000000   0.000000   0.000000
    16  H    0.000000   0.000000   0.000000   0.000001
    17  H    0.000112  -0.000002  -0.000002   0.000010
    18  H    0.000442   0.000002  -0.000001   0.000004
    19  H    0.000000   0.000000   0.000001   0.000001
    20  H    0.000000   0.000000   0.000000   0.000000
    21  H    0.000000   0.000000   0.000000   0.000000
    22  H    0.000000   0.000000   0.000000   0.000002
    23  H    0.000000   0.000000   0.000000   0.000000
    24  H    0.000000   0.000000   0.000000   0.000000
    25  H    0.000000   0.000000   0.000000   0.000000
    26  H    0.005589  -0.000071  -0.000280   0.005211
    27  H   -0.000003  -0.000016   0.005313  -0.000339
    28  H    0.005872  -0.003421  -0.003240   0.005853
    29  H   -0.031019   0.004295  -0.000003  -0.000237
    30  H   -0.031022  -0.000042  -0.000186  -0.000034
    31  H    0.577853  -0.000223  -0.000052   0.004831
    32  H   -0.000223   0.572127  -0.029679  -0.031046
    33  H   -0.000052  -0.029679   0.583372  -0.031826
    34  H    0.004831  -0.031046  -0.031826   0.582419
 Mulliken charges:
               1
     1  C    0.613515
     2  N   -0.587186
     3  C   -0.040358
     4  C   -0.263954
     5  O   -0.528707
     6  N   -0.586937
     7  C   -0.316258
     8  C    0.575135
     9  O   -0.499520
    10  C   -0.549370
    11  C   -0.264758
    12  C   -0.067488
    13  C   -0.447100
    14  C   -0.442994
    15  H    0.347755
    16  H    0.132895
    17  H    0.144009
    18  H    0.166696
    19  H    0.328462
    20  H    0.210326
    21  H    0.164190
    22  H    0.161577
    23  H    0.165661
    24  H    0.187795
    25  H    0.161549
    26  H    0.139199
    27  H    0.113690
    28  H    0.123232
    29  H    0.143903
    30  H    0.151475
    31  H    0.142127
    32  H    0.145017
    33  H    0.137136
    34  H    0.139288
 Sum of Mulliken charges =   0.00000
 Mulliken charges with hydrogens summed into heavy atoms:
               1
     1  C    0.613515
     2  N   -0.239431
     3  C    0.092537
     4  C    0.046751
     5  O   -0.528707
     6  N   -0.258475
     7  C    0.219836
     8  C    0.575135
     9  O   -0.499520
    10  C   -0.034365
    11  C   -0.011870
    12  C    0.055743
    13  C   -0.009595
    14  C   -0.021554
 Electronic spatial extent (au):  <R**2>=           3982.7879
 Charge=              0.0000 electrons
 Dipole moment (field-independent basis, Debye):
    X=              4.8356    Y=             -1.7366    Z=             -4.3965  Tot=              6.7622
 Quadrupole moment (field-independent basis, Debye-Ang):
   XX=           -105.2492   YY=            -82.7444   ZZ=            -86.3942
   XY=              4.9773   XZ=              7.3449   YZ=              3.5781
 Traceless Quadrupole moment (field-independent basis, Debye-Ang):
   XX=            -13.7866   YY=              8.7182   ZZ=              5.0684
   XY=              4.9773   XZ=              7.3449   YZ=              3.5781
 Octapole moment (field-independent basis, Debye-Ang**2):
  XXX=             66.3294  YYY=            -38.4368  ZZZ=             -4.8599  XYY=             14.2061
  XXY=            -33.1939  XXZ=            -18.9223  XZZ=             -7.4250  YZZ=             -1.4721
  YYZ=            -18.6250  XYZ=              9.2632
 Hexadecapole moment (field-independent basis, Debye-Ang**3):
 XXXX=          -3379.1527 YYYY=          -1578.5024 ZZZZ=           -496.7553 XXXY=            143.7088
 XXXZ=             87.5091 YYYX=            -17.4618 YYYZ=             22.0561 ZZZX=            -12.6773
 ZZZY=             19.1619 XXYY=           -832.5199 XXZZ=           -591.0503 YYZZ=           -373.4305
 XXYZ=            -43.4836 YYXZ=             26.0052 ZZXY=            -11.0683
 N-N= 9.449073395739D+02 E-N=-3.408488551412D+03  KE= 6.469721282619D+02
 1\1\GINC-MERCURY\FOpt\RB3LYP\6-31G(d)\C10H20N2O2\ROTATIONS\03-Mar-2021
 \0\\#B3LYP/6-31G(d) em=GD3BJ Opt=ModRedundant\\scan rotamers\\0,1\C,1.
 0101541058,-1.6896100271,-0.648531188\N,-1.2902667069,-2.3196327275,-0
 .4466932657\C,-0.4310959958,-1.1627706319,-0.6133996053\C,-0.581005829
 7,-0.1486687456,0.5424435952\O,1.3702567023,-2.5666310817,0.1295511876
 \N,1.8312241554,-1.1003530978,-1.5577342753\C,3.2440557904,-1.42201663
 99,-1.6625055899\C,-2.6080561413,-2.4490831068,-0.7964686191\O,-3.2558
 644847,-3.4394308832,-0.4853472715\C,-3.2069390319,-1.3193497453,-1.62
 39720629\C,0.2394875224,1.1308954814,0.3569718111\C,-0.0512487296,2.22
 71196365,1.3967359292\C,0.2669805133,1.7663353195,2.8250547597\C,0.726
 9683979,3.5035593926,1.0549693439\H,-0.9015445338,-3.0687550275,0.1166
 389281\H,-0.6738008102,-0.669599959,-1.5617029713\H,-1.6455451102,0.10
 26443815,0.6316692292\H,-0.298303746,-0.6646980561,1.465924109\H,1.451
 3859943,-0.3771401603,-2.1507295533\H,3.4488163695,-2.2171035647,-0.94
 48852025\H,3.4919909777,-1.7726563334,-2.6701397671\H,3.8663260553,-0.
 5518670687,-1.4239125257\H,-2.7125681186,-1.2437877212,-2.6000447608\H
 ,-4.2627592602,-1.542210702,-1.7791530714\H,-3.1121687312,-0.347645811
 5,-1.1272221826\H,1.3119775759,0.8935635035,0.3845437831\H,0.041171927
 1,1.5414963034,-0.6454836022\H,-1.1259228127,2.4593959915,1.3447237891
 \H,0.0849447607,2.572949977,3.5440834673\H,-0.3434872686,0.909450667,3
 .1268557791\H,1.3214135711,1.4734994079,2.9116539855\H,0.4950538884,4.
 3098697969,1.7598174944\H,0.4899072892,3.8595627419,0.0453090472\H,1.8
 086617144,3.3227684907,1.101179276\\Version=ES64L-G09RevD.01\State=1-A
 \HF=-653.1541713\RMSD=7.877e-09\RMSF=1.999e-06\Dipole=1.2168414,2.1489
 535,-0.9896357\Quadrupole=0.0558065,-8.1795985,8.123792,-7.2876766,-3.
 3707904,0.5506206\PG=C01 [X(C10H20N2O2)]\\@


 WE MIGHT AS WELL ATTEMPT TO INTRODUCE A NEW PLANET 
 INTO THE SOLAR SYSTEM, OR TO ANNIHILATE ONE ALREADYIN EXISTENCE, 
 AS TO CREATE OR DESTROY A PARTICLE OF HYDROGEN.
 ALL THE CHANGES WE CAN PRODUCE CONSIST IN SEPARATING PARTICLES
 THAT ARE IN A STATE OF ... COMBINATION, AND JOINING 
 THOSE THAT WERE PREVIOUSLY AT A DISTANCE.

                                    -- JOHN DALTON, 1810
 Job cpu time:       0 days  1 hours 23 minutes  5.0 seconds.
 File lengths (MBytes):  RWF=     32 Int=      0 D2E=      0 Chk=      6 Scr=      1
 Normal termination of Gaussian 09 at Wed Mar  3 19:07:31 2021.
