 Entering Gaussian System, Link 0=g09
 Initial command:
 /home/rotations/zhangf/install/g09/l1.exe "/home/rotations/zhangf/install/g09/scratch/Gau-23218.inp" -scrdir="/home/rotations/zhangf/install/g09/scratch/"
 Default is to use a total of   4 processors:
                                4 via shared-memory
                                1 via Linda
 Entering Link 1 = /home/rotations/zhangf/install/g09/l1.exe PID=     23220.
  
 Copyright (c) 1988,1990,1992,1993,1995,1998,2003,2009,2013,
            Gaussian, Inc.  All Rights Reserved.
  
 This is part of the Gaussian(R) 09 program.  It is based on
 the Gaussian(R) 03 system (copyright 2003, Gaussian, Inc.),
 the Gaussian(R) 98 system (copyright 1998, Gaussian, Inc.),
 the Gaussian(R) 94 system (copyright 1995, Gaussian, Inc.),
 the Gaussian 92(TM) system (copyright 1992, Gaussian, Inc.),
 the Gaussian 90(TM) system (copyright 1990, Gaussian, Inc.),
 the Gaussian 88(TM) system (copyright 1988, Gaussian, Inc.),
 the Gaussian 86(TM) system (copyright 1986, Carnegie Mellon
 University), and the Gaussian 82(TM) system (copyright 1983,
 Carnegie Mellon University). Gaussian is a federally registered
 trademark of Gaussian, Inc.
  
 This software contains proprietary and confidential information,
 including trade secrets, belonging to Gaussian, Inc.
  
 This software is provided under written license and may be
 used, copied, transmitted, or stored only in accord with that
 written license.
  
 The following legend is applicable only to US Government
 contracts under FAR:
  
                    RESTRICTED RIGHTS LEGEND
  
 Use, reproduction and disclosure by the US Government is
 subject to restrictions as set forth in subparagraphs (a)
 and (c) of the Commercial Computer Software - Restricted
 Rights clause in FAR 52.227-19.
  
 Gaussian, Inc.
 340 Quinnipiac St., Bldg. 40, Wallingford CT 06492
  
  
 ---------------------------------------------------------------
 Warning -- This program may not be used in any manner that
 competes with the business of Gaussian, Inc. or will provide
 assistance to any competitor of Gaussian, Inc.  The licensee
 of this program is prohibited from giving any competitor of
 Gaussian, Inc. access to this program.  By using this program,
 the user acknowledges that Gaussian, Inc. is engaged in the
 business of creating and licensing software in the field of
 computational chemistry and represents and warrants to the
 licensee that it is not a competitor of Gaussian, Inc. and that
 it will not use this program in any manner prohibited above.
 ---------------------------------------------------------------
  

 Cite this work as:
 Gaussian 09, Revision D.01,
 M. J. Frisch, G. W. Trucks, H. B. Schlegel, G. E. Scuseria, 
 M. A. Robb, J. R. Cheeseman, G. Scalmani, V. Barone, B. Mennucci, 
 G. A. Petersson, H. Nakatsuji, M. Caricato, X. Li, H. P. Hratchian, 
 A. F. Izmaylov, J. Bloino, G. Zheng, J. L. Sonnenberg, M. Hada, 
 M. Ehara, K. Toyota, R. Fukuda, J. Hasegawa, M. Ishida, T. Nakajima, 
 Y. Honda, O. Kitao, H. Nakai, T. Vreven, J. A. Montgomery, Jr., 
 J. E. Peralta, F. Ogliaro, M. Bearpark, J. J. Heyd, E. Brothers, 
 K. N. Kudin, V. N. Staroverov, T. Keith, R. Kobayashi, J. Normand, 
 K. Raghavachari, A. Rendell, J. C. Burant, S. S. Iyengar, J. Tomasi, 
 M. Cossi, N. Rega, J. M. Millam, M. Klene, J. E. Knox, J. B. Cross, 
 V. Bakken, C. Adamo, J. Jaramillo, R. Gomperts, R. E. Stratmann, 
 O. Yazyev, A. J. Austin, R. Cammi, C. Pomelli, J. W. Ochterski, 
 R. L. Martin, K. Morokuma, V. G. Zakrzewski, G. A. Voth, 
 P. Salvador, J. J. Dannenberg, S. Dapprich, A. D. Daniels, 
 O. Farkas, J. B. Foresman, J. V. Ortiz, J. Cioslowski, 
 and D. J. Fox, Gaussian, Inc., Wallingford CT, 2013.
 
 ******************************************
 Gaussian 09:  ES64L-G09RevD.01 24-Apr-2013
                14-Mar-2021 
 ******************************************
 %Chk=/home/rotations/zhangf/gen_ncaa_params/gaussian_output/L-BP5.chk
 -----------------------------------------
 #B3LYP/6-31G(d) em=GD3BJ Opt=ModRedundant
 -----------------------------------------
 1/14=-1,18=120,19=15,26=3,38=1/1,3;
 2/9=110,12=2,17=6,18=5,40=1/2;
 3/5=1,6=6,7=1,11=2,16=1,25=1,30=1,71=1,74=-5,124=41/1,2,3;
 4//1;
 5/5=2,38=5/2;
 6/7=2,8=2,9=2,10=2,28=1/1;
 7//1,2,3,16;
 1/14=-1,18=20,19=15,26=3/3(2);
 2/9=110/2;
 99//99;
 2/9=110/2;
 3/5=1,6=6,7=1,11=2,16=1,25=1,30=1,71=1,74=-5,124=41/1,2,3;
 4/5=5,16=3,69=1/1;
 5/5=2,38=5/2;
 7//1,2,3,16;
 1/14=-1,18=20,19=15,26=3/3(-5);
 2/9=110/2;
 6/7=2,8=2,9=2,10=2,19=2,28=1/1;
 99/9=1/99;
 -------------
 scan rotamers
 -------------
 Symbolic Z-matrix:
 Charge =  0 Multiplicity = 1
 C                     0.5883    3.1611   -1.4758 
 N                     0.7248    3.2424    0.9348 
 C                     0.5068    2.3633   -0.1975 
 C                    -0.8708    1.7233   -0.0864 
 O                     0.4341    2.6126   -2.541 
 N                     0.837     4.5065   -1.4282 
 C                     0.9154    5.2731   -2.6565 
 C                     0.6969    2.7389    2.2076 
 O                     0.8786    3.4713    3.1509 
 C                     0.4391    1.2691    2.4321 
 C                    -0.7266    0.2346   -0.0237 
 C                     0.5283   -0.3637   -0.0685 
 C                     0.6244   -1.7501   -0.0079 
 C                    -0.5462   -2.4845    0.0956 
 N                    -1.7782   -1.9322    0.1413 
 C                    -1.8398   -0.5841    0.0805 
 C                    -0.4508   -3.8168    0.1536 
 N                     0.768    -4.3788   -0.0009 
 C                     0.81     -5.7279   -0.0541 
 C                    -0.31     -6.5385    0.0401 
 C                    -1.5509   -5.9303    0.1986 
 C                    -1.6267   -4.5426    0.257 
 H                     0.8977    4.2281    0.7843 
 H                     1.2855    1.5682   -0.2051 
 H                    -1.3743    2.086     0.8376 
 H                    -1.4809    1.9997   -0.9753 
 H                     0.9662    4.966    -0.5359 
 H                     0.7481    4.5992   -3.5264 
 H                     0.1357    6.0674   -2.6479 
 H                     1.922     5.741    -2.7381 
 H                     0.2969    0.7628    1.4512 
 H                     1.3085    0.8169    2.9598 
 H                    -0.4777    1.1437    3.0505 
 H                     1.4353    0.2531   -0.151 
 H                     1.6036   -2.2502   -0.0413 
 H                    -2.8311   -0.1086    0.1157 
 H                     1.7902   -6.2112   -0.1795 
 H                    -0.2202   -7.6337   -0.0093 
 H                    -2.4628   -6.5405    0.2771 
 H                    -2.5945   -4.0348    0.3819 
 
 The following ModRedundant input section has been read:
 

 GradGradGradGradGradGradGradGradGradGradGradGradGradGradGradGradGradGrad
 Berny optimization.
 Initialization pass.
                           ----------------------------
                           !    Initial Parameters    !
                           ! (Angstroms and Degrees)  !
 --------------------------                            --------------------------
 ! Name  Definition              Value          Derivative Info.                !
 --------------------------------------------------------------------------------
 ! R1    R(1,3)                  1.509          estimate D2E/DX2                !
 ! R2    R(1,5)                  1.208          estimate D2E/DX2                !
 ! R3    R(1,6)                  1.369          estimate D2E/DX2                !
 ! R4    R(2,3)                  1.45           estimate D2E/DX2                !
 ! R5    R(2,8)                  1.3691         estimate D2E/DX2                !
 ! R6    R(2,23)                 1.012          estimate D2E/DX2                !
 ! R7    R(3,4)                  1.5231         estimate D2E/DX2                !
 ! R8    R(3,24)                 1.1129         estimate D2E/DX2                !
 ! R9    R(4,11)                 1.497          estimate D2E/DX2                !
 ! R10   R(4,25)                 1.113          estimate D2E/DX2                !
 ! R11   R(4,26)                 1.113          estimate D2E/DX2                !
 ! R12   R(6,7)                  1.45           estimate D2E/DX2                !
 ! R13   R(6,27)                 1.0119         estimate D2E/DX2                !
 ! R14   R(7,28)                 1.113          estimate D2E/DX2                !
 ! R15   R(7,29)                 1.1131         estimate D2E/DX2                !
 ! R16   R(7,30)                 1.113          estimate D2E/DX2                !
 ! R17   R(8,9)                  1.208          estimate D2E/DX2                !
 ! R18   R(8,10)                 1.509          estimate D2E/DX2                !
 ! R19   R(10,31)                1.113          estimate D2E/DX2                !
 ! R20   R(10,32)                1.113          estimate D2E/DX2                !
 ! R21   R(10,33)                1.113          estimate D2E/DX2                !
 ! R22   R(11,12)                1.391          estimate D2E/DX2                !
 ! R23   R(11,16)                1.3858         estimate D2E/DX2                !
 ! R24   R(12,13)                1.391          estimate D2E/DX2                !
 ! R25   R(12,34)                1.1            estimate D2E/DX2                !
 ! R26   R(13,14)                1.3858         estimate D2E/DX2                !
 ! R27   R(13,35)                1.1            estimate D2E/DX2                !
 ! R28   R(14,15)                1.3509         estimate D2E/DX2                !
 ! R29   R(14,17)                1.337          estimate D2E/DX2                !
 ! R30   R(15,16)                1.3509         estimate D2E/DX2                !
 ! R31   R(16,36)                1.1            estimate D2E/DX2                !
 ! R32   R(17,18)                1.351          estimate D2E/DX2                !
 ! R33   R(17,22)                1.3857         estimate D2E/DX2                !
 ! R34   R(18,19)                1.3508         estimate D2E/DX2                !
 ! R35   R(19,20)                1.3858         estimate D2E/DX2                !
 ! R36   R(19,37)                1.1            estimate D2E/DX2                !
 ! R37   R(20,21)                1.391          estimate D2E/DX2                !
 ! R38   R(20,38)                1.1            estimate D2E/DX2                !
 ! R39   R(21,22)                1.391          estimate D2E/DX2                !
 ! R40   R(21,39)                1.1            estimate D2E/DX2                !
 ! R41   R(22,40)                1.1            estimate D2E/DX2                !
 ! A1    A(3,1,5)              120.0009         estimate D2E/DX2                !
 ! A2    A(3,1,6)              119.9947         estimate D2E/DX2                !
 ! A3    A(5,1,6)              120.0045         estimate D2E/DX2                !
 ! A4    A(3,2,8)              119.9977         estimate D2E/DX2                !
 ! A5    A(3,2,23)             120.0053         estimate D2E/DX2                !
 ! A6    A(8,2,23)             119.997          estimate D2E/DX2                !
 ! A7    A(1,3,2)              109.4421         estimate D2E/DX2                !
 ! A8    A(1,3,4)              109.4386         estimate D2E/DX2                !
 ! A9    A(1,3,24)             109.5196         estimate D2E/DX2                !
 ! A10   A(2,3,4)              109.4989         estimate D2E/DX2                !
 ! A11   A(2,3,24)             109.4679         estimate D2E/DX2                !
 ! A12   A(4,3,24)             109.4603         estimate D2E/DX2                !
 ! A13   A(3,4,11)             109.5001         estimate D2E/DX2                !
 ! A14   A(3,4,25)             109.4381         estimate D2E/DX2                !
 ! A15   A(3,4,26)             109.4628         estimate D2E/DX2                !
 ! A16   A(11,4,25)            109.443          estimate D2E/DX2                !
 ! A17   A(11,4,26)            109.4642         estimate D2E/DX2                !
 ! A18   A(25,4,26)            109.519          estimate D2E/DX2                !
 ! A19   A(1,6,7)              119.9955         estimate D2E/DX2                !
 ! A20   A(1,6,27)             120.0062         estimate D2E/DX2                !
 ! A21   A(7,6,27)             119.9983         estimate D2E/DX2                !
 ! A22   A(6,7,28)             109.5012         estimate D2E/DX2                !
 ! A23   A(6,7,29)             109.4423         estimate D2E/DX2                !
 ! A24   A(6,7,30)             109.4663         estimate D2E/DX2                !
 ! A25   A(28,7,29)            109.4395         estimate D2E/DX2                !
 ! A26   A(28,7,30)            109.4609         estimate D2E/DX2                !
 ! A27   A(29,7,30)            109.5172         estimate D2E/DX2                !
 ! A28   A(2,8,9)              119.9959         estimate D2E/DX2                !
 ! A29   A(2,8,10)             120.0003         estimate D2E/DX2                !
 ! A30   A(9,8,10)             120.0039         estimate D2E/DX2                !
 ! A31   A(8,10,31)            109.499          estimate D2E/DX2                !
 ! A32   A(8,10,32)            109.4394         estimate D2E/DX2                !
 ! A33   A(8,10,33)            109.4592         estimate D2E/DX2                !
 ! A34   A(31,10,32)           109.4407         estimate D2E/DX2                !
 ! A35   A(31,10,33)           109.4629         estimate D2E/DX2                !
 ! A36   A(32,10,33)           109.5261         estimate D2E/DX2                !
 ! A37   A(4,11,12)            120.8848         estimate D2E/DX2                !
 ! A38   A(4,11,16)            120.8835         estimate D2E/DX2                !
 ! A39   A(12,11,16)           118.2317         estimate D2E/DX2                !
 ! A40   A(11,12,13)           119.3159         estimate D2E/DX2                !
 ! A41   A(11,12,34)           120.3408         estimate D2E/DX2                !
 ! A42   A(13,12,34)           120.3433         estimate D2E/DX2                !
 ! A43   A(12,13,14)           118.2346         estimate D2E/DX2                !
 ! A44   A(12,13,35)           120.8827         estimate D2E/DX2                !
 ! A45   A(14,13,35)           120.8827         estimate D2E/DX2                !
 ! A46   A(13,14,15)           123.7959         estimate D2E/DX2                !
 ! A47   A(13,14,17)           118.1038         estimate D2E/DX2                !
 ! A48   A(15,14,17)           118.1003         estimate D2E/DX2                !
 ! A49   A(14,15,16)           116.6193         estimate D2E/DX2                !
 ! A50   A(11,16,15)           123.8026         estimate D2E/DX2                !
 ! A51   A(11,16,36)           118.0959         estimate D2E/DX2                !
 ! A52   A(15,16,36)           118.1015         estimate D2E/DX2                !
 ! A53   A(14,17,18)           118.2909         estimate D2E/DX2                !
 ! A54   A(14,17,22)           117.6861         estimate D2E/DX2                !
 ! A55   A(18,17,22)           123.7934         estimate D2E/DX2                !
 ! A56   A(17,18,19)           116.6167         estimate D2E/DX2                !
 ! A57   A(18,19,20)           123.8075         estimate D2E/DX2                !
 ! A58   A(18,19,37)           118.0984         estimate D2E/DX2                !
 ! A59   A(20,19,37)           118.0941         estimate D2E/DX2                !
 ! A60   A(19,20,21)           118.2286         estimate D2E/DX2                !
 ! A61   A(19,20,38)           120.8885         estimate D2E/DX2                !
 ! A62   A(21,20,38)           120.8829         estimate D2E/DX2                !
 ! A63   A(20,21,22)           119.3145         estimate D2E/DX2                !
 ! A64   A(20,21,39)           120.339          estimate D2E/DX2                !
 ! A65   A(22,21,39)           120.3465         estimate D2E/DX2                !
 ! A66   A(17,22,21)           118.2393         estimate D2E/DX2                !
 ! A67   A(17,22,40)           120.8812         estimate D2E/DX2                !
 ! A68   A(21,22,40)           120.8794         estimate D2E/DX2                !
 ! D1    D(5,1,3,2)           -179.9955         estimate D2E/DX2                !
 ! D2    D(5,1,3,4)            -59.9994         estimate D2E/DX2                !
 ! D3    D(5,1,3,24)            59.9969         estimate D2E/DX2                !
 ! D4    D(6,1,3,2)              0.0045         estimate D2E/DX2                !
 ! D5    D(6,1,3,4)            120.0006         estimate D2E/DX2                !
 ! D6    D(6,1,3,24)          -120.0031         estimate D2E/DX2                !
 ! D7    D(3,1,6,7)            179.9961         estimate D2E/DX2                !
 ! D8    D(3,1,6,27)             0.0015         estimate D2E/DX2                !
 ! D9    D(5,1,6,7)             -0.0039         estimate D2E/DX2                !
 ! D10   D(5,1,6,27)          -179.9985         estimate D2E/DX2                !
 ! D11   D(8,2,3,1)           -179.999          estimate D2E/DX2                !
 ! D12   D(8,2,3,4)             60.0419         estimate D2E/DX2                !
 ! D13   D(8,2,3,24)           -59.9597         estimate D2E/DX2                !
 ! D14   D(23,2,3,1)            -0.0073         estimate D2E/DX2                !
 ! D15   D(23,2,3,4)          -119.9665         estimate D2E/DX2                !
 ! D16   D(23,2,3,24)          120.032          estimate D2E/DX2                !
 ! D17   D(3,2,8,9)            179.9956         estimate D2E/DX2                !
 ! D18   D(3,2,8,10)            -0.0079         estimate D2E/DX2                !
 ! D19   D(23,2,8,9)             0.004          estimate D2E/DX2                !
 ! D20   D(23,2,8,10)         -179.9995         estimate D2E/DX2                !
 ! D21   D(1,3,4,11)           120.0366         estimate D2E/DX2                !
 ! D22   D(1,3,4,25)          -120.0006         estimate D2E/DX2                !
 ! D23   D(1,3,4,26)             0.0326         estimate D2E/DX2                !
 ! D24   D(2,3,4,11)          -120.0022         estimate D2E/DX2                !
 ! D25   D(2,3,4,25)            -0.0393         estimate D2E/DX2                !
 ! D26   D(2,3,4,26)           119.9938         estimate D2E/DX2                !
 ! D27   D(24,3,4,11)            0.004          estimate D2E/DX2                !
 ! D28   D(24,3,4,25)          119.9669         estimate D2E/DX2                !
 ! D29   D(24,3,4,26)         -120.0            estimate D2E/DX2                !
 ! D30   D(3,4,11,12)           -0.0018         estimate D2E/DX2                !
 ! D31   D(3,4,11,16)          179.9992         estimate D2E/DX2                !
 ! D32   D(25,4,11,12)        -119.9616         estimate D2E/DX2                !
 ! D33   D(25,4,11,16)          60.0393         estimate D2E/DX2                !
 ! D34   D(26,4,11,12)         120.0014         estimate D2E/DX2                !
 ! D35   D(26,4,11,16)         -59.9976         estimate D2E/DX2                !
 ! D36   D(1,6,7,28)             0.0034         estimate D2E/DX2                !
 ! D37   D(1,6,7,29)           119.9652         estimate D2E/DX2                !
 ! D38   D(1,6,7,30)          -119.9993         estimate D2E/DX2                !
 ! D39   D(27,6,7,28)          179.998          estimate D2E/DX2                !
 ! D40   D(27,6,7,29)          -60.0402         estimate D2E/DX2                !
 ! D41   D(27,6,7,30)           59.9953         estimate D2E/DX2                !
 ! D42   D(2,8,10,31)            0.0034         estimate D2E/DX2                !
 ! D43   D(2,8,10,32)          119.9635         estimate D2E/DX2                !
 ! D44   D(2,8,10,33)         -119.9961         estimate D2E/DX2                !
 ! D45   D(9,8,10,31)          179.9998         estimate D2E/DX2                !
 ! D46   D(9,8,10,32)          -60.04           estimate D2E/DX2                !
 ! D47   D(9,8,10,33)           60.0004         estimate D2E/DX2                !
 ! D48   D(4,11,12,13)        -179.9988         estimate D2E/DX2                !
 ! D49   D(4,11,12,34)           0.0009         estimate D2E/DX2                !
 ! D50   D(16,11,12,13)          0.0002         estimate D2E/DX2                !
 ! D51   D(16,11,12,34)        179.9999         estimate D2E/DX2                !
 ! D52   D(4,11,16,15)         179.9994         estimate D2E/DX2                !
 ! D53   D(4,11,16,36)           0.0021         estimate D2E/DX2                !
 ! D54   D(12,11,16,15)          0.0004         estimate D2E/DX2                !
 ! D55   D(12,11,16,36)       -179.9969         estimate D2E/DX2                !
 ! D56   D(11,12,13,14)          0.0012         estimate D2E/DX2                !
 ! D57   D(11,12,13,35)        179.9982         estimate D2E/DX2                !
 ! D58   D(34,12,13,14)       -179.9985         estimate D2E/DX2                !
 ! D59   D(34,12,13,35)         -0.0015         estimate D2E/DX2                !
 ! D60   D(12,13,14,15)         -0.0034         estimate D2E/DX2                !
 ! D61   D(12,13,14,17)        179.9972         estimate D2E/DX2                !
 ! D62   D(35,13,14,15)        179.9996         estimate D2E/DX2                !
 ! D63   D(35,13,14,17)          0.0003         estimate D2E/DX2                !
 ! D64   D(13,14,15,16)          0.0039         estimate D2E/DX2                !
 ! D65   D(17,14,15,16)       -179.9967         estimate D2E/DX2                !
 ! D66   D(13,14,17,18)         -5.2927         estimate D2E/DX2                !
 ! D67   D(13,14,17,22)        180.0            estimate D2E/DX2                !
 ! D68   D(15,14,17,18)        174.7079         estimate D2E/DX2                !
 ! D69   D(15,14,17,22)          0.0006         estimate D2E/DX2                !
 ! D70   D(14,15,16,11)         -0.0023         estimate D2E/DX2                !
 ! D71   D(14,15,16,36)        179.995          estimate D2E/DX2                !
 ! D72   D(14,17,18,19)       -174.3598         estimate D2E/DX2                !
 ! D73   D(22,17,18,19)         -0.0004         estimate D2E/DX2                !
 ! D74   D(14,17,22,21)        174.3874         estimate D2E/DX2                !
 ! D75   D(14,17,22,40)         -5.609          estimate D2E/DX2                !
 ! D76   D(18,17,22,21)         -0.0036         estimate D2E/DX2                !
 ! D77   D(18,17,22,40)        179.9999         estimate D2E/DX2                !
 ! D78   D(17,18,19,20)         -0.0002         estimate D2E/DX2                !
 ! D79   D(17,18,19,37)        179.9989         estimate D2E/DX2                !
 ! D80   D(18,19,20,21)          0.0047         estimate D2E/DX2                !
 ! D81   D(18,19,20,38)        179.9954         estimate D2E/DX2                !
 ! D82   D(37,19,20,21)       -179.9944         estimate D2E/DX2                !
 ! D83   D(37,19,20,38)         -0.0036         estimate D2E/DX2                !
 ! D84   D(19,20,21,22)         -0.0086         estimate D2E/DX2                !
 ! D85   D(19,20,21,39)       -179.9992         estimate D2E/DX2                !
 ! D86   D(38,20,21,22)       -179.9994         estimate D2E/DX2                !
 ! D87   D(38,20,21,39)          0.0101         estimate D2E/DX2                !
 ! D88   D(20,21,22,17)          0.0081         estimate D2E/DX2                !
 ! D89   D(20,21,22,40)       -179.9954         estimate D2E/DX2                !
 ! D90   D(39,21,22,17)        179.9987         estimate D2E/DX2                !
 ! D91   D(39,21,22,40)         -0.0048         estimate D2E/DX2                !
 --------------------------------------------------------------------------------
 Trust Radius=3.00D-01 FncErr=1.00D-07 GrdErr=1.00D-06
 Number of steps in this run=    210 maximum allowed number of steps=    240.
 GradGradGradGradGradGradGradGradGradGradGradGradGradGradGradGradGradGrad

                          Input orientation:                          
 ---------------------------------------------------------------------
 Center     Atomic      Atomic             Coordinates (Angstroms)
 Number     Number       Type             X           Y           Z
 ---------------------------------------------------------------------
      1          6           0        0.588300    3.161100   -1.475800
      2          7           0        0.724800    3.242400    0.934800
      3          6           0        0.506800    2.363300   -0.197500
      4          6           0       -0.870800    1.723300   -0.086400
      5          8           0        0.434100    2.612600   -2.541000
      6          7           0        0.837000    4.506500   -1.428200
      7          6           0        0.915400    5.273100   -2.656500
      8          6           0        0.696900    2.738900    2.207600
      9          8           0        0.878600    3.471300    3.150900
     10          6           0        0.439100    1.269100    2.432100
     11          6           0       -0.726600    0.234600   -0.023700
     12          6           0        0.528300   -0.363700   -0.068500
     13          6           0        0.624400   -1.750100   -0.007900
     14          6           0       -0.546200   -2.484500    0.095600
     15          7           0       -1.778200   -1.932200    0.141300
     16          6           0       -1.839800   -0.584100    0.080500
     17          6           0       -0.450800   -3.816800    0.153600
     18          7           0        0.768000   -4.378800   -0.000900
     19          6           0        0.810000   -5.727900   -0.054100
     20          6           0       -0.310000   -6.538500    0.040100
     21          6           0       -1.550900   -5.930300    0.198600
     22          6           0       -1.626700   -4.542600    0.257000
     23          1           0        0.897700    4.228100    0.784300
     24          1           0        1.285500    1.568200   -0.205100
     25          1           0       -1.374300    2.086000    0.837600
     26          1           0       -1.480900    1.999700   -0.975300
     27          1           0        0.966200    4.966000   -0.535900
     28          1           0        0.748100    4.599200   -3.526400
     29          1           0        0.135700    6.067400   -2.647900
     30          1           0        1.922000    5.741000   -2.738100
     31          1           0        0.296900    0.762800    1.451200
     32          1           0        1.308500    0.816900    2.959800
     33          1           0       -0.477700    1.143700    3.050500
     34          1           0        1.435300    0.253100   -0.151000
     35          1           0        1.603600   -2.250200   -0.041300
     36          1           0       -2.831100   -0.108600    0.115700
     37          1           0        1.790200   -6.211200   -0.179500
     38          1           0       -0.220200   -7.633700   -0.009300
     39          1           0       -2.462800   -6.540500    0.277100
     40          1           0       -2.594500   -4.034800    0.381900
 ---------------------------------------------------------------------
                    Distance matrix (angstroms):
                    1          2          3          4          5
     1  C    0.000000
     2  N    2.415830   0.000000
     3  C    1.509032   1.449981   0.000000
     4  C    2.475212   2.428261   1.523064   0.000000
     5  O    1.208007   3.544339   2.357844   2.918678   0.000000
     6  N    1.369021   2.682220   2.493383   3.530327   2.233273
     7  C    2.441637   4.130073   3.831523   4.732547   2.706150
     8  C    3.709108   1.369055   2.441663   2.958304   4.757543
     9  O    4.646165   2.233193   3.546503   4.073821   5.773445
    10  C    4.344376   2.493480   2.848974   2.874887   5.151382
    11  C    3.521641   3.474499   2.466343   1.496981   3.652247
    12  C    3.795828   3.748224   2.730134   2.512642   3.870464
    13  C    5.126004   5.081714   4.119446   3.782366   5.048362
    14  C    5.969019   5.925967   4.969495   4.224224   5.821776
    15  N    5.844402   5.802684   4.877226   3.773314   5.722256
    16  C    4.726972   4.684987   3.777695   2.508169   4.718238
    17  C    7.240564   7.198931   6.263697   5.561179   7.027169
    18  N    7.684902   7.678547   6.750021   6.318908   7.446024
    19  C    9.004704   9.025047   8.098149   7.638489   8.711482
    20  C    9.858354   9.876098   8.942352   8.281777   9.537211
    21  C    9.488590   9.479411   8.554229   7.689041   9.188404
    22  C    8.200964   8.160588   7.242227   6.320665   7.954407
    23  H    2.518386   1.012003   2.143412   3.187434   3.725907
    24  H    2.153624   2.101595   1.112931   2.165127   2.696680
    25  H    3.218611   2.398527   2.164917   1.113032   3.868146
    26  H    2.425065   3.171419   2.165209   1.112997   2.548389
    27  H    2.069755   2.278603   2.664509   3.753894   3.137204
    28  H    2.509707   4.663020   4.017344   4.767100   2.239685
    29  H    3.166267   4.600370   4.456740   5.142522   3.469310
    30  H    3.166708   4.600705   4.457162   5.565353   3.469810
    31  H    3.795272   2.568693   2.307351   2.156455   4.402073
    32  H    5.068383   3.213157   3.605914   3.853601   5.852172
    33  H    5.068890   3.213524   3.606407   3.214126   5.852685
    34  H    3.305899   3.258786   2.305909   2.735646   3.504532
    35  H    5.689534   5.647452   4.744655   4.681174   5.591337
    36  H    4.991604   4.954246   4.165328   2.690628   5.012436
    37  H    9.537555   9.578481   8.670034   8.369342   9.234454
    38  H   10.923919  10.957824  10.025166   9.379908  10.574700
    39  H   10.320025  10.310116   9.397948   8.423597  10.005646
    40  H    8.084692   8.017549   7.133684   6.028778   7.867890
                    6          7          8          9         10
     6  N    0.000000
     7  C    1.450015   0.000000
     8  C    4.045130   5.489024   0.000000
     9  O    4.694840   6.080603   1.207990   0.000000
    10  C    5.053810   6.492513   1.509031   2.357863   0.000000
    11  C    4.760945   5.917287   3.643703   4.809468   2.908608
    12  C    5.065859   6.214588   3.851647   5.019409   2.987807
    13  C    6.419306   7.511664   5.006478   6.107835   3.886323
    14  C    7.287612   8.360065   5.769727   6.843717   4.529852
    15  N    7.124567   8.185323   5.675816   6.731574   4.518020
    16  C    5.946061   7.027737   4.690600   5.767437   3.762680
    17  C    8.569588   9.611943   6.965151   7.991715   5.643568
    18  N    8.999472  10.011649   7.452797   8.459914   6.158444
    19  C   10.326269  11.305114   8.764404   9.741766   7.434835
    20  C   11.201051  12.177321   9.580295  10.549215   8.200087
    21  C   10.829374  11.821607   9.178437  10.149317   7.796152
    22  C    9.528690  10.549821   7.888232   8.881091   6.540218
    23  H    2.230773   3.596032   2.069739   2.484735   3.417783
    24  H    3.214146   4.457872   2.745562   3.879445   2.785799
    25  H    3.985288   5.254433   2.567693   3.513683   2.549152
    26  H    3.444100   4.391336   3.926841   4.975779   3.978763
    27  H    1.011945   2.143323   3.543909   3.979233   4.770108
    28  H    2.102127   1.113039   6.028440   6.773147   6.832918
    29  H    2.101404   1.113067   5.913522   6.396696   6.994436
    30  H    2.101679   1.113029   5.913833   6.396917   6.994845
    31  H    4.753729   6.131765   2.153395   3.250127   1.112980
    32  H    5.752391   7.180186   2.152660   2.695769   1.113018
    33  H    5.752879   7.180705   2.152865   2.695803   1.112954
    34  H    4.481140   5.634556   3.505343   4.644273   2.949081
    35  H    6.940040   7.994556   5.547141   6.591762   4.456371
    36  H    6.094074   7.119273   4.993104   5.982474   4.237685
    37  H   10.832217  11.780915   9.327263  10.279756   8.037463
    38  H   12.268472  13.224324  10.646434  11.598071   9.254996
    39  H   11.654739  12.632474   9.990886  10.938913   8.605516
    40  H    9.381123  10.401359   7.749162   8.721888   6.444952
                   11         12         13         14         15
    11  C    0.000000
    12  C    1.390951   0.000000
    13  C    2.400934   1.391047   0.000000
    14  C    2.727688   2.383122   1.385771   0.000000
    15  N    2.414148   2.797168   2.414106   1.350906   0.000000
    16  C    1.385764   2.382997   2.727573   2.298945   1.350876
    17  C    4.064645   3.596090   2.335249   1.336970   2.305181
    18  N    4.849516   4.022817   2.632629   2.307554   3.534007
    19  C    6.157391   5.371611   3.982396   3.518712   4.598293
    20  C    6.786200   6.232391   4.878953   4.061254   4.835685
    21  C    6.223735   5.948231   4.716847   3.590762   4.004966
    22  C    4.869354   4.713086   3.596621   2.330087   2.617351
    23  H    4.386258   4.684907   6.036650   6.900591   6.747087
    24  H    2.420732   2.079483   3.389256   4.457569   4.664660
    25  H    2.142203   3.231398   4.407418   4.703805   4.098036
    26  H    2.142449   3.231846   4.407851   4.704098   4.098173
    27  H    5.051145   5.368046   6.745488   7.628637   7.454897
    28  H    5.787347   6.052748   7.260080   8.060577   7.905277
    29  H    6.453801   6.940208   8.265696   9.007040   8.685404
    30  H    6.686067   6.807094   8.078016   9.043269   8.992242
    31  H    1.871330   1.905790   2.924191   3.618484   3.644846
    32  H    3.658139   3.342623   3.983055   4.747925   5.002920
    33  H    3.215450   3.607278   4.352300   4.679739   4.428985
    34  H    2.165724   1.099953   2.165836   3.388452   3.897122
    35  H    3.406519   2.171611   1.100022   2.166859   3.401623
    36  H    2.136853   3.374103   3.827568   3.296373   2.105890
    37  H    6.921481   5.983140   4.614103   4.407124   5.580881
    38  H    7.884592   7.308670   5.943913   5.160576   5.912457
    39  H    7.000489   6.871607   5.706134   4.489703   4.660853
    40  H    4.677749   4.840632   3.966499   2.584750   2.268295
                   16         17         18         19         20
    16  C    0.000000
    17  C    3.519235   0.000000
    18  N    4.605105   1.350995   0.000000
    19  C    5.787766   2.298926   1.350802   0.000000
    20  C    6.147910   2.727702   2.414139   1.385765   0.000000
    21  C    5.355303   2.383092   2.797186   2.382996   1.390993
    22  C    3.968159   1.385719   2.414111   2.727494   2.400908
    23  H    5.580906   8.181482   8.643615   9.991624  10.859652
    24  H    3.805452   5.669359   5.972965   7.313137   8.265853
    25  H    2.814129   6.013631   6.861936   8.162311   8.726439
    26  H    2.814169   6.013917   6.833174   8.112499   8.677725
    27  H    6.249576   8.923053   9.362200  10.705887  11.589391
    28  H    6.824482   9.263305   9.645415  10.895398  11.742566
    29  H    7.455818  10.290277  10.794883  12.095932  12.897004
    30  H    7.880516  10.263705  10.546769  11.831148  12.786178
    31  H    2.873751   4.818253   5.363449   6.682693   7.461133
    32  H    4.490541   5.695706   6.004430   7.222638   8.077506
    33  H    3.696148   5.744503   6.431238   7.649549   8.252686
    34  H    3.388329   4.496025   4.682127   6.014379   7.014871
    35  H    3.827235   2.590903   2.287094   3.567122   4.696595
    36  H    1.100007   4.406587   5.585850   6.697983   6.906901
    37  H    6.701399   3.296390   2.105821   1.100044   2.136864
    38  H    7.233811   3.827328   3.401615   2.166885   1.099985
    39  H    5.992118   3.388501   3.897217   3.388397   2.165807
    40  H    3.545101   2.166817   3.401658   3.827180   3.406506
                   21         22         23         24         25
    21  C    0.000000
    22  C    1.390995   0.000000
    23  H   10.465743   9.141981   0.000000
    24  H    8.027181   6.785007   2.864327   0.000000
    25  H    8.043667   6.658764   3.123046   2.903425   0.000000
    26  H    8.016723   6.658942   3.704011   2.903854   1.818081
    27  H   11.207347   9.887633   1.513974   3.428764   3.957126
    28  H   11.403131  10.174787   4.329230   4.528443   5.464911
    29  H   12.445561  11.140763   3.967829   5.247105   5.502759
    30  H   12.526152  11.283454   3.968042   4.922751   6.083605
    31  H    7.055562   5.768329   3.579668   2.090294   2.218169
    32  H    7.831035   6.681674   4.066675   3.252933   3.648529
    33  H    7.702374   6.438777   4.067052   3.726661   2.566856
    34  H    6.875612   5.704476   4.118789   1.324709   3.497242
    35  H    4.852995   3.972269   6.568735   3.835127   5.333196
    36  H    5.961374   4.596836   5.758293   4.456564   2.731241
    37  H    3.374139   3.827527  10.521618   7.795796   8.938237
    38  H    2.171533   3.406473  11.940762   9.326330   9.824549
    39  H    1.100031   2.165888  11.292164   8.946132   8.712950
    40  H    2.171548   1.100044   8.979583   6.840510   6.257855
                   26         27         28         29         30
    26  H    0.000000
    27  H    3.870440   0.000000
    28  H    4.270123   3.020795   0.000000
    29  H    4.685848   2.522569   1.817253   0.000000
    30  H    5.355793   2.522670   1.817461   1.818115   0.000000
    31  H    3.252445   4.697171   6.300639   6.705773   6.706240
    32  H    4.966365   5.436186   7.529318   7.771069   7.555740
    33  H    4.236297   5.436643   7.529853   7.555848   7.771848
    34  H    3.497757   4.751803   5.545643   6.459842   6.086625
    35  H    5.333680   7.261160   7.732534   8.839206   8.439987
    36  H    2.730980   6.371470   6.945426   7.387988   8.059402
    37  H    8.874248  11.213197  11.364526  12.633067  12.223702
    38  H    9.763448  12.666384  12.765243  13.957400  13.817307
    39  H    8.687212  12.034058  12.201205  13.201022  13.384810
    40  H    6.284687   9.722929  10.049564  10.894408  11.211576
                   31         32         33         34         35
    31  H    0.000000
    32  H    1.817178   0.000000
    33  H    1.817375   1.818113   0.000000
    34  H    2.030466   3.164020   3.834363   0.000000
    35  H    3.607380   4.301254   5.040793   2.511348   0.000000
    36  H    3.511023   5.107029   3.964820   4.290003   4.927237
    37  H    7.316133   7.712420   8.346905   6.474098   3.967800
    38  H    8.538247   9.086535   9.299002   8.059924   5.684131
    39  H    7.895103   8.692003   8.407098   7.844199   5.919769
    40  H    5.702680   6.739286   6.198317   5.908414   4.581260
                   36         37         38         39         40
    36  H    0.000000
    37  H    7.660632   0.000000
    38  H    7.966151   2.468640   0.000000
    39  H    6.444457   4.290097   2.511248   0.000000
    40  H    3.942320   4.927218   4.329252   2.511346   0.000000
 Stoichiometry    C16H18N4O2
 Framework group  C1[X(C16H18N4O2)]
 Deg. of freedom   114
 Full point group                 C1      NOp   1
 Largest Abelian subgroup         C1      NOp   1
 Largest concise Abelian subgroup C1      NOp   1
                         Standard orientation:                         
 ---------------------------------------------------------------------
 Center     Atomic      Atomic             Coordinates (Angstroms)
 Number     Number       Type             X           Y           Z
 ---------------------------------------------------------------------
      1          6           0       -3.449039   -1.301263   -0.184233
      2          7           0       -3.397493    1.113170   -0.248198
      3          6           0       -2.569443   -0.075105   -0.179071
      4          6           0       -1.746205   -0.047250    1.102033
      5          8           0       -2.952311   -2.401182   -0.132063
      6          7           0       -4.809966   -1.167012   -0.248045
      7          6           0       -5.655174   -2.345206   -0.253092
      8          6           0       -2.816478    2.352791   -0.256597
      9          8           0       -3.506361    3.342728   -0.314268
     10          6           0       -1.314345    2.482465   -0.193735
     11          6           0       -0.288930   -0.066795    0.760097
     12          6           0        0.133153   -0.104834   -0.564721
     13          6           0        1.495505   -0.122097   -0.845275
     14          6           0        2.384109   -0.100476    0.217869
     15          7           0        2.004537   -0.063466    1.513826
     16          6           0        0.675468   -0.047494    1.755038
     17          6           0        3.692879   -0.117200   -0.054764
     18          7           0        4.077026   -0.263768   -1.341673
     19          6           0        5.402593   -0.394191   -1.566456
     20          6           0        6.359260   -0.384619   -0.563938
     21          6           0        5.932604   -0.232096    0.751191
     22          6           0        4.573676   -0.095352    1.014787
     23          1           0       -4.404875    1.026264   -0.290364
     24          1           0       -1.887030   -0.103290   -1.057782
     25          1           0       -1.980448    0.879152    1.672778
     26          1           0       -1.993803   -0.938230    1.721399
     27          1           0       -5.226101   -0.245626   -0.291772
     28          1           0       -5.020501   -3.258017   -0.199964
     29          1           0       -6.336600   -2.316103    0.626527
     30          1           0       -6.256988   -2.365963   -1.189159
     31          1           0       -0.855706    1.469517   -0.145655
     32          1           0       -0.949842    3.011390   -1.102682
     33          1           0       -1.029832    3.061776    0.712972
     34          1           0       -0.602753   -0.121099   -1.382081
     35          1           0        1.857839   -0.152165   -1.883474
     36          1           0        0.339189   -0.017467    2.801952
     37          1           0        5.742447   -0.515038   -2.605683
     38          1           0        7.427559   -0.494849   -0.801750
     39          1           0        6.662383   -0.219598    1.574193
     40          1           0        4.207907    0.026836    2.045021
 ---------------------------------------------------------------------
 Rotational constants (GHZ):      0.6225125      0.1205856      0.1110447
 Standard basis: 6-31G(d) (6D, 7F)
 There are   366 symmetry adapted cartesian basis functions of A   symmetry.
 There are   366 symmetry adapted basis functions of A   symmetry.
   366 basis functions,   688 primitive gaussians,   366 cartesian basis functions
    79 alpha electrons       79 beta electrons
       nuclear repulsion energy      1717.4907320536 Hartrees.
 NAtoms=   40 NActive=   40 NUniq=   40 SFac= 1.00D+00 NAtFMM=   60 NAOKFM=F Big=F
 Integral buffers will be    131072 words long.
 Raffenetti 2 integral format.
 Two-electron integral symmetry is turned on.
 Nuclear repulsion after empirical dispersion term =     1717.4025887438 Hartrees.
 One-electron integrals computed using PRISM.
 NBasis=   366 RedAO= T EigKep=  5.00D-04  NBF=   366
 NBsUse=   366 1.00D-06 EigRej= -1.00D+00 NBFU=   366
 ExpMin= 1.61D-01 ExpMax= 5.48D+03 ExpMxC= 8.25D+02 IAcc=1 IRadAn=         1 AccDes= 0.00D+00
 Harris functional with IExCor=  402 and IRadAn=       1 diagonalized for initial guess.
 HarFok:  IExCor=  402 AccDes= 0.00D+00 IRadAn=         1 IDoV= 1 UseB2=F ITyADJ=14
 ICtDFT=  3500011 ScaDFX=  1.000000  1.000000  1.000000  1.000000
 FoFCou: FMM=F IPFlag=           0 FMFlag=      100000 FMFlg1=           0
         NFxFlg=           0 DoJE=T BraDBF=F KetDBF=T FulRan=T
         wScrn=  0.000000 ICntrl=     500 IOpCl=  0 I1Cent=   200000004 NGrid=           0
         NMat0=    1 NMatS0=      1 NMatT0=    0 NMatD0=    1 NMtDS0=    0 NMtDT0=    0
 Petite list used in FoFCou.
 Requested convergence on RMS density matrix=1.00D-08 within 128 cycles.
 Requested convergence on MAX density matrix=1.00D-06.
 Requested convergence on             energy=1.00D-06.
 No special actions if energy rises.
 Integral accuracy reduced to 1.0D-05 until final iterations.
 Initial convergence to 1.0D-05 achieved.  Increase integral accuracy.
 SCF Done:  E(RB3LYP) =  -990.014392817     A.U. after   16 cycles
            NFock= 16  Conv=0.38D-08     -V/T= 2.0085

 **********************************************************************

            Population analysis using the SCF density.

 **********************************************************************

 Orbital symmetries:
       Occupied  (A) (A) (A) (A) (A) (A) (A) (A) (A) (A) (A) (A)
                 (A) (A) (A) (A) (A) (A) (A) (A) (A) (A) (A) (A)
                 (A) (A) (A) (A) (A) (A) (A) (A) (A) (A) (A) (A)
                 (A) (A) (A) (A) (A) (A) (A) (A) (A) (A) (A) (A)
                 (A) (A) (A) (A) (A) (A) (A) (A) (A) (A) (A) (A)
                 (A) (A) (A) (A) (A) (A) (A) (A) (A) (A) (A) (A)
                 (A) (A) (A) (A) (A) (A) (A)
       Virtual   (A) (A) (A) (A) (A) (A) (A) (A) (A) (A) (A) (A)
                 (A) (A) (A) (A) (A) (A) (A) (A) (A) (A) (A) (A)
                 (A) (A) (A) (A) (A) (A) (A) (A) (A) (A) (A) (A)
                 (A) (A) (A) (A) (A) (A) (A) (A) (A) (A) (A) (A)
                 (A) (A) (A) (A) (A) (A) (A) (A) (A) (A) (A) (A)
                 (A) (A) (A) (A) (A) (A) (A) (A) (A) (A) (A) (A)
                 (A) (A) (A) (A) (A) (A) (A) (A) (A) (A) (A) (A)
                 (A) (A) (A) (A) (A) (A) (A) (A) (A) (A) (A) (A)
                 (A) (A) (A) (A) (A) (A) (A) (A) (A) (A) (A) (A)
                 (A) (A) (A) (A) (A) (A) (A) (A) (A) (A) (A) (A)
                 (A) (A) (A) (A) (A) (A) (A) (A) (A) (A) (A) (A)
                 (A) (A) (A) (A) (A) (A) (A) (A) (A) (A) (A) (A)
                 (A) (A) (A) (A) (A) (A) (A) (A) (A) (A) (A) (A)
                 (A) (A) (A) (A) (A) (A) (A) (A) (A) (A) (A) (A)
                 (A) (A) (A) (A) (A) (A) (A) (A) (A) (A) (A) (A)
                 (A) (A) (A) (A) (A) (A) (A) (A) (A) (A) (A) (A)
                 (A) (A) (A) (A) (A) (A) (A) (A) (A) (A) (A) (A)
                 (A) (A) (A) (A) (A) (A) (A) (A) (A) (A) (A) (A)
                 (A) (A) (A) (A) (A) (A) (A) (A) (A) (A) (A) (A)
                 (A) (A) (A) (A) (A) (A) (A) (A) (A) (A) (A) (A)
                 (A) (A) (A) (A) (A) (A) (A) (A) (A) (A) (A) (A)
                 (A) (A) (A) (A) (A) (A) (A) (A) (A) (A) (A) (A)
                 (A) (A) (A) (A) (A) (A) (A) (A) (A) (A) (A) (A)
                 (A) (A) (A) (A) (A) (A) (A) (A) (A) (A) (A)
 The electronic state is 1-A.
 Alpha  occ. eigenvalues --  -19.11965 -19.10025 -14.37862 -14.36267 -14.33549
 Alpha  occ. eigenvalues --  -14.33153 -10.29801 -10.28190 -10.24620 -10.23207
 Alpha  occ. eigenvalues --  -10.22767 -10.22545 -10.21602 -10.21425 -10.21088
 Alpha  occ. eigenvalues --  -10.21031 -10.20971 -10.20666 -10.19909 -10.19506
 Alpha  occ. eigenvalues --  -10.19061 -10.18415  -1.05632  -1.03456  -0.96149
 Alpha  occ. eigenvalues --   -0.94846  -0.93245  -0.92408  -0.84479  -0.81000
 Alpha  occ. eigenvalues --   -0.79762  -0.77747  -0.75156  -0.73312  -0.71521
 Alpha  occ. eigenvalues --   -0.68573  -0.65880  -0.63850  -0.61883  -0.61058
 Alpha  occ. eigenvalues --   -0.59513  -0.57950  -0.55142  -0.54493  -0.51641
 Alpha  occ. eigenvalues --   -0.51104  -0.48498  -0.48308  -0.47687  -0.46381
 Alpha  occ. eigenvalues --   -0.46137  -0.45270  -0.44906  -0.44267  -0.43812
 Alpha  occ. eigenvalues --   -0.42927  -0.42201  -0.41890  -0.41630  -0.41018
 Alpha  occ. eigenvalues --   -0.40456  -0.39567  -0.38636  -0.38263  -0.37344
 Alpha  occ. eigenvalues --   -0.37111  -0.36667  -0.36151  -0.34738  -0.29940
 Alpha  occ. eigenvalues --   -0.28731  -0.27722  -0.27338  -0.26714  -0.26646
 Alpha  occ. eigenvalues --   -0.25571  -0.24701  -0.23935  -0.22446
 Alpha virt. eigenvalues --   -0.06010  -0.03638  -0.01108   0.01046   0.03128
 Alpha virt. eigenvalues --    0.03344   0.03427   0.08321   0.09649   0.09745
 Alpha virt. eigenvalues --    0.10518   0.11018   0.12566   0.13305   0.14139
 Alpha virt. eigenvalues --    0.15262   0.15380   0.15787   0.16212   0.17081
 Alpha virt. eigenvalues --    0.17541   0.17933   0.18485   0.19567   0.20521
 Alpha virt. eigenvalues --    0.20993   0.22049   0.22386   0.24363   0.25015
 Alpha virt. eigenvalues --    0.26133   0.26392   0.27813   0.28547   0.29940
 Alpha virt. eigenvalues --    0.30708   0.32430   0.32835   0.34195   0.36456
 Alpha virt. eigenvalues --    0.37541   0.39112   0.40864   0.41548   0.41917
 Alpha virt. eigenvalues --    0.43158   0.46771   0.49261   0.49690   0.50436
 Alpha virt. eigenvalues --    0.50860   0.51499   0.51767   0.52782   0.53137
 Alpha virt. eigenvalues --    0.53537   0.55011   0.56000   0.57103   0.57484
 Alpha virt. eigenvalues --    0.58173   0.58406   0.59005   0.59134   0.59494
 Alpha virt. eigenvalues --    0.59883   0.60636   0.61783   0.62138   0.62410
 Alpha virt. eigenvalues --    0.63188   0.63590   0.63790   0.64680   0.66363
 Alpha virt. eigenvalues --    0.66634   0.69412   0.69742   0.70653   0.71317
 Alpha virt. eigenvalues --    0.71584   0.72064   0.72732   0.73257   0.73564
 Alpha virt. eigenvalues --    0.75837   0.76116   0.78420   0.79023   0.80185
 Alpha virt. eigenvalues --    0.81273   0.81572   0.82105   0.82599   0.83119
 Alpha virt. eigenvalues --    0.83961   0.84481   0.84886   0.85813   0.86517
 Alpha virt. eigenvalues --    0.86711   0.86988   0.88168   0.88526   0.89497
 Alpha virt. eigenvalues --    0.90066   0.90315   0.90942   0.91792   0.92674
 Alpha virt. eigenvalues --    0.93244   0.94357   0.95086   0.95501   0.97297
 Alpha virt. eigenvalues --    0.97693   1.00417   1.00918   1.03236   1.04678
 Alpha virt. eigenvalues --    1.05445   1.06220   1.06364   1.08266   1.08584
 Alpha virt. eigenvalues --    1.10085   1.11424   1.12910   1.13615   1.15522
 Alpha virt. eigenvalues --    1.17073   1.17996   1.19500   1.21812   1.23291
 Alpha virt. eigenvalues --    1.23407   1.24655   1.25198   1.26240   1.28377
 Alpha virt. eigenvalues --    1.30200   1.32273   1.34153   1.35157   1.37186
 Alpha virt. eigenvalues --    1.38216   1.39471   1.40387   1.41991   1.43674
 Alpha virt. eigenvalues --    1.44695   1.45852   1.47623   1.47915   1.48138
 Alpha virt. eigenvalues --    1.48840   1.50000   1.50607   1.51232   1.51551
 Alpha virt. eigenvalues --    1.51929   1.57111   1.61692   1.62881   1.63230
 Alpha virt. eigenvalues --    1.66679   1.68229   1.71500   1.73827   1.75231
 Alpha virt. eigenvalues --    1.76750   1.77691   1.78793   1.80338   1.81474
 Alpha virt. eigenvalues --    1.81827   1.82436   1.83000   1.83952   1.84679
 Alpha virt. eigenvalues --    1.85680   1.86599   1.88612   1.89724   1.90916
 Alpha virt. eigenvalues --    1.91024   1.92137   1.92542   1.93123   1.94552
 Alpha virt. eigenvalues --    1.95899   1.96238   1.97807   1.99301   2.02503
 Alpha virt. eigenvalues --    2.04463   2.05120   2.07238   2.09199   2.09598
 Alpha virt. eigenvalues --    2.11798   2.12892   2.13279   2.14548   2.16138
 Alpha virt. eigenvalues --    2.16821   2.17100   2.17860   2.19493   2.21555
 Alpha virt. eigenvalues --    2.22117   2.22920   2.23685   2.24410   2.24747
 Alpha virt. eigenvalues --    2.26576   2.27440   2.28105   2.30234   2.31535
 Alpha virt. eigenvalues --    2.33067   2.33116   2.35412   2.39252   2.39613
 Alpha virt. eigenvalues --    2.39744   2.40633   2.42913   2.45613   2.46998
 Alpha virt. eigenvalues --    2.52572   2.53161   2.53552   2.56267   2.56999
 Alpha virt. eigenvalues --    2.59462   2.60595   2.64637   2.64844   2.64894
 Alpha virt. eigenvalues --    2.65788   2.66904   2.67667   2.68538   2.71769
 Alpha virt. eigenvalues --    2.73178   2.74238   2.75849   2.78614   2.81079
 Alpha virt. eigenvalues --    2.85237   2.85753   2.89207   2.91624   2.95456
 Alpha virt. eigenvalues --    2.96978   2.99202   3.00339   3.07089   3.09747
 Alpha virt. eigenvalues --    3.10236   3.23218   3.34252   3.39214   3.49317
 Alpha virt. eigenvalues --    3.93574   4.02685   4.03034   4.04681   4.08162
 Alpha virt. eigenvalues --    4.11487   4.18265   4.19196   4.20035   4.22247
 Alpha virt. eigenvalues --    4.24149   4.26117   4.28745   4.32466   4.39506
 Alpha virt. eigenvalues --    4.40486   4.41393   4.52813   4.59850   4.63696
 Alpha virt. eigenvalues --    4.74306   4.79200
          Condensed to atoms (all electrons):
               1          2          3          4          5          6
     1  C    4.327142  -0.013007   0.320359  -0.012630   0.589009   0.268882
     2  N   -0.013007   7.311701   0.130792  -0.070887   0.002880  -0.005273
     3  C    0.320359   0.130792   5.266274   0.306735  -0.083914  -0.114292
     4  C   -0.012630  -0.070887   0.306735   5.344507  -0.001522   0.000814
     5  O    0.589009   0.002880  -0.083914  -0.001522   8.090015  -0.109710
     6  N    0.268882  -0.005273  -0.114292   0.000814  -0.109710   7.151687
     7  C   -0.026361   0.000272   0.005832  -0.000093  -0.011246   0.260080
     8  C    0.001353   0.272624  -0.011437  -0.006263  -0.000039   0.000572
     9  O   -0.000102  -0.101275   0.003397  -0.000069   0.000000   0.000004
    10  C    0.000941  -0.134002   0.012849  -0.001565  -0.000004  -0.000032
    11  C   -0.003162   0.002455  -0.020406   0.298219  -0.001220  -0.000012
    12  C   -0.000546   0.000237  -0.017389  -0.080531   0.000688  -0.000011
    13  C   -0.000027  -0.000070   0.002448   0.007325  -0.000006   0.000000
    14  C    0.000001   0.000001  -0.000082   0.000489   0.000000   0.000000
    15  N    0.000000   0.000001  -0.000127   0.005392   0.000000   0.000000
    16  C   -0.000003  -0.000150   0.002853  -0.041587  -0.000056   0.000001
    17  C    0.000000   0.000000   0.000000   0.000003   0.000000   0.000000
    18  N    0.000000   0.000000   0.000000   0.000000   0.000000   0.000000
    19  C    0.000000   0.000000   0.000000   0.000000   0.000000   0.000000
    20  C    0.000000   0.000000   0.000000   0.000000   0.000000   0.000000
    21  C    0.000000   0.000000   0.000000   0.000000   0.000000   0.000000
    22  C    0.000000   0.000000   0.000000  -0.000001   0.000000   0.000000
    23  H   -0.008741   0.260100  -0.037756   0.003905   0.000067   0.004113
    24  H   -0.022131  -0.042413   0.370426  -0.070511   0.002059   0.000395
    25  H    0.001588  -0.000576  -0.049461   0.366918   0.000413  -0.000118
    26  H   -0.001662   0.005049  -0.043079   0.350939   0.008229   0.000568
    27  H   -0.013635   0.000663  -0.002889   0.000318   0.004168   0.282600
    28  H   -0.002275  -0.000048   0.001138  -0.000017   0.023398  -0.036091
    29  H    0.001263  -0.000004  -0.000132   0.000021   0.000708  -0.044265
    30  H    0.001268   0.000000  -0.000179  -0.000005   0.000690  -0.044304
    31  H    0.001517   0.006035  -0.004938  -0.014823   0.000015   0.000019
    32  H   -0.000017   0.002432  -0.000258   0.000331   0.000000   0.000000
    33  H   -0.000027   0.002586  -0.000438  -0.000371   0.000000   0.000000
    34  H    0.000532   0.000439  -0.023007  -0.007204  -0.000161  -0.000004
    35  H   -0.000001   0.000000   0.000036  -0.000158   0.000000   0.000000
    36  H   -0.000016   0.000003   0.000158  -0.003971   0.000000   0.000000
    37  H    0.000000   0.000000   0.000000   0.000000   0.000000   0.000000
    38  H    0.000000   0.000000   0.000000   0.000000   0.000000   0.000000
    39  H    0.000000   0.000000   0.000000   0.000000   0.000000   0.000000
    40  H    0.000000   0.000000   0.000000  -0.000001   0.000000   0.000000
               7          8          9         10         11         12
     1  C   -0.026361   0.001353  -0.000102   0.000941  -0.003162  -0.000546
     2  N    0.000272   0.272624  -0.101275  -0.134002   0.002455   0.000237
     3  C    0.005832  -0.011437   0.003397   0.012849  -0.020406  -0.017389
     4  C   -0.000093  -0.006263  -0.000069  -0.001565   0.298219  -0.080531
     5  O   -0.011246  -0.000039   0.000000  -0.000004  -0.001220   0.000688
     6  N    0.260080   0.000572   0.000004  -0.000032  -0.000012  -0.000011
     7  C    4.975665  -0.000007   0.000000   0.000001   0.000000   0.000000
     8  C   -0.000007   4.266456   0.609579   0.341947   0.001608   0.001081
     9  O    0.000000   0.609579   8.069616  -0.092340  -0.000026  -0.000023
    10  C    0.000001   0.341947  -0.092340   5.430026  -0.040759  -0.028910
    11  C    0.000000   0.001608  -0.000026  -0.040759   4.922058   0.522336
    12  C    0.000000   0.001081  -0.000023  -0.028910   0.522336   5.108813
    13  C    0.000000   0.000032   0.000000  -0.001010  -0.034883   0.425248
    14  C    0.000000   0.000000   0.000000   0.000400  -0.032384  -0.018378
    15  N    0.000000   0.000000   0.000000   0.000175  -0.012397  -0.037404
    16  C    0.000000  -0.000018   0.000000  -0.000784   0.476646  -0.037079
    17  C    0.000000   0.000000   0.000000   0.000000   0.001022   0.008683
    18  N    0.000000   0.000000   0.000000   0.000000   0.000031   0.001971
    19  C    0.000000   0.000000   0.000000   0.000000   0.000000  -0.000035
    20  C    0.000000   0.000000   0.000000   0.000000   0.000000   0.000002
    21  C    0.000000   0.000000   0.000000   0.000000   0.000001   0.000010
    22  C    0.000000   0.000000   0.000000   0.000000   0.000174  -0.000604
    23  H   -0.000391   0.001480   0.012974   0.008989  -0.000152   0.000000
    24  H   -0.000076  -0.003817  -0.000006  -0.001022  -0.012875  -0.005717
    25  H    0.000004  -0.000899  -0.000396   0.002796  -0.035668   0.002193
    26  H   -0.000022   0.000086  -0.000001   0.000257  -0.020364   0.002461
    27  H   -0.025689  -0.000316  -0.000247  -0.000029   0.000001  -0.000004
    28  H    0.373085   0.000001   0.000000   0.000000   0.000001   0.000000
    29  H    0.379794   0.000000   0.000000   0.000000   0.000000   0.000000
    30  H    0.380493   0.000000   0.000000   0.000000   0.000000   0.000000
    31  H    0.000000  -0.023138   0.005950   0.283292  -0.008983  -0.011889
    32  H    0.000000  -0.019383  -0.001423   0.365411   0.000399   0.001229
    33  H    0.000000  -0.019913  -0.001208   0.365781   0.002120   0.000404
    34  H    0.000000  -0.000093  -0.000003   0.000247  -0.062229   0.354594
    35  H    0.000000   0.000000   0.000000  -0.000075   0.003745  -0.042350
    36  H    0.000000   0.000000   0.000000  -0.000111  -0.077057   0.004876
    37  H    0.000000   0.000000   0.000000   0.000000   0.000000  -0.000001
    38  H    0.000000   0.000000   0.000000   0.000000   0.000000   0.000000
    39  H    0.000000   0.000000   0.000000   0.000000   0.000000   0.000000
    40  H    0.000000   0.000000   0.000000   0.000000   0.000052   0.000012
              13         14         15         16         17         18
     1  C   -0.000027   0.000001   0.000000  -0.000003   0.000000   0.000000
     2  N   -0.000070   0.000001   0.000001  -0.000150   0.000000   0.000000
     3  C    0.002448  -0.000082  -0.000127   0.002853   0.000000   0.000000
     4  C    0.007325   0.000489   0.005392  -0.041587   0.000003   0.000000
     5  O   -0.000006   0.000000   0.000000  -0.000056   0.000000   0.000000
     6  N    0.000000   0.000000   0.000000   0.000001   0.000000   0.000000
     7  C    0.000000   0.000000   0.000000   0.000000   0.000000   0.000000
     8  C    0.000032   0.000000   0.000000  -0.000018   0.000000   0.000000
     9  O    0.000000   0.000000   0.000000   0.000000   0.000000   0.000000
    10  C   -0.001010   0.000400   0.000175  -0.000784   0.000000   0.000000
    11  C   -0.034883  -0.032384  -0.012397   0.476646   0.001022   0.000031
    12  C    0.425248  -0.018378  -0.037404  -0.037079   0.008683   0.001971
    13  C    5.292303   0.359327  -0.108344  -0.048558  -0.076384  -0.018736
    14  C    0.359327   4.897455   0.480098  -0.055033   0.285897  -0.096860
    15  N   -0.108344   0.480098   6.888773   0.434426  -0.095117   0.004962
    16  C   -0.048558  -0.055033   0.434426   4.884591   0.009551  -0.000116
    17  C   -0.076384   0.285897  -0.095117   0.009551   4.887040   0.485771
    18  N   -0.018736  -0.096860   0.004962  -0.000116   0.485771   6.867349
    19  C   -0.000361   0.009835  -0.000106   0.000007  -0.049706   0.458287
    20  C    0.000217   0.000687  -0.000003   0.000000  -0.039903  -0.031270
    21  C   -0.000550   0.007656   0.001779  -0.000024  -0.008798  -0.030646
    22  C    0.033174  -0.078022  -0.023335  -0.000156   0.364005  -0.111006
    23  H    0.000001   0.000000   0.000000   0.000002   0.000000   0.000000
    24  H    0.001064  -0.000142  -0.000054   0.000567   0.000004   0.000000
    25  H   -0.000162   0.000044  -0.000014  -0.005260   0.000001   0.000000
    26  H   -0.000105   0.000031  -0.000017  -0.005406   0.000000   0.000000
    27  H    0.000000   0.000000   0.000000   0.000000   0.000000   0.000000
    28  H    0.000000   0.000000   0.000000   0.000000   0.000000   0.000000
    29  H    0.000000   0.000000   0.000000   0.000000   0.000000   0.000000
    30  H    0.000000   0.000000   0.000000   0.000000   0.000000   0.000000
    31  H   -0.003474  -0.000274  -0.000216  -0.003225  -0.000013   0.000000
    32  H    0.000133  -0.000009   0.000000   0.000018   0.000000   0.000000
    33  H    0.000039  -0.000006  -0.000038   0.000388  -0.000001   0.000000
    34  H   -0.015280   0.002637   0.000008   0.004211  -0.000222  -0.000048
    35  H    0.347569  -0.028555   0.003847   0.000567  -0.012837   0.025996
    36  H    0.000193   0.004316  -0.050981   0.380645  -0.000139   0.000002
    37  H   -0.000031  -0.000144   0.000002   0.000000   0.004075  -0.052319
    38  H   -0.000002   0.000019   0.000000   0.000000   0.000437   0.004192
    39  H    0.000007  -0.000188  -0.000025   0.000000   0.002940   0.000030
    40  H    0.000496  -0.014546   0.024874   0.000436  -0.027600   0.004016
              19         20         21         22         23         24
     1  C    0.000000   0.000000   0.000000   0.000000  -0.008741  -0.022131
     2  N    0.000000   0.000000   0.000000   0.000000   0.260100  -0.042413
     3  C    0.000000   0.000000   0.000000   0.000000  -0.037756   0.370426
     4  C    0.000000   0.000000   0.000000  -0.000001   0.003905  -0.070511
     5  O    0.000000   0.000000   0.000000   0.000000   0.000067   0.002059
     6  N    0.000000   0.000000   0.000000   0.000000   0.004113   0.000395
     7  C    0.000000   0.000000   0.000000   0.000000  -0.000391  -0.000076
     8  C    0.000000   0.000000   0.000000   0.000000   0.001480  -0.003817
     9  O    0.000000   0.000000   0.000000   0.000000   0.012974  -0.000006
    10  C    0.000000   0.000000   0.000000   0.000000   0.008989  -0.001022
    11  C    0.000000   0.000000   0.000001   0.000174  -0.000152  -0.012875
    12  C   -0.000035   0.000002   0.000010  -0.000604   0.000000  -0.005717
    13  C   -0.000361   0.000217  -0.000550   0.033174   0.000001   0.001064
    14  C    0.009835   0.000687   0.007656  -0.078022   0.000000  -0.000142
    15  N   -0.000106  -0.000003   0.001779  -0.023335   0.000000  -0.000054
    16  C    0.000007   0.000000  -0.000024  -0.000156   0.000002   0.000567
    17  C   -0.049706  -0.039903  -0.008798   0.364005   0.000000   0.000004
    18  N    0.458287  -0.031270  -0.030646  -0.111006   0.000000   0.000000
    19  C    4.779351   0.492545  -0.029638  -0.050369   0.000000   0.000000
    20  C    0.492545   4.965948   0.530510  -0.024176   0.000000   0.000000
    21  C   -0.029638   0.530510   4.886408   0.472756   0.000000   0.000000
    22  C   -0.050369  -0.024176   0.472756   5.240453   0.000000   0.000000
    23  H    0.000000   0.000000   0.000000   0.000000   0.422214   0.003266
    24  H    0.000000   0.000000   0.000000   0.000000   0.003266   0.579116
    25  H    0.000000   0.000000   0.000000   0.000000   0.000617   0.004337
    26  H    0.000000   0.000000   0.000000   0.000000  -0.000090   0.004498
    27  H    0.000000   0.000000   0.000000   0.000000   0.013710   0.000004
    28  H    0.000000   0.000000   0.000000   0.000000  -0.000006  -0.000019
    29  H    0.000000   0.000000   0.000000   0.000000  -0.000005  -0.000004
    30  H    0.000000   0.000000   0.000000   0.000000  -0.000014   0.000021
    31  H    0.000000   0.000000   0.000000  -0.000001  -0.001095  -0.008336
    32  H    0.000000   0.000000   0.000000   0.000000  -0.000130   0.000380
    33  H    0.000000   0.000000   0.000000   0.000000  -0.000132  -0.000002
    34  H    0.000000   0.000000   0.000000   0.000005  -0.000036   0.016523
    35  H    0.000165   0.000069   0.000000   0.000640   0.000000   0.000051
    36  H    0.000000   0.000000  -0.000001  -0.000023   0.000000   0.000022
    37  H    0.376604  -0.066999   0.004427   0.000439   0.000000   0.000000
    38  H   -0.035946   0.352626  -0.039378   0.004040   0.000000   0.000000
    39  H    0.005169  -0.044430   0.358575  -0.037404   0.000000   0.000000
    40  H    0.000243   0.004439  -0.045588   0.350492   0.000000   0.000000
              25         26         27         28         29         30
     1  C    0.001588  -0.001662  -0.013635  -0.002275   0.001263   0.001268
     2  N   -0.000576   0.005049   0.000663  -0.000048  -0.000004   0.000000
     3  C   -0.049461  -0.043079  -0.002889   0.001138  -0.000132  -0.000179
     4  C    0.366918   0.350939   0.000318  -0.000017   0.000021  -0.000005
     5  O    0.000413   0.008229   0.004168   0.023398   0.000708   0.000690
     6  N   -0.000118   0.000568   0.282600  -0.036091  -0.044265  -0.044304
     7  C    0.000004  -0.000022  -0.025689   0.373085   0.379794   0.380493
     8  C   -0.000899   0.000086  -0.000316   0.000001   0.000000   0.000000
     9  O   -0.000396  -0.000001  -0.000247   0.000000   0.000000   0.000000
    10  C    0.002796   0.000257  -0.000029   0.000000   0.000000   0.000000
    11  C   -0.035668  -0.020364   0.000001   0.000001   0.000000   0.000000
    12  C    0.002193   0.002461  -0.000004   0.000000   0.000000   0.000000
    13  C   -0.000162  -0.000105   0.000000   0.000000   0.000000   0.000000
    14  C    0.000044   0.000031   0.000000   0.000000   0.000000   0.000000
    15  N   -0.000014  -0.000017   0.000000   0.000000   0.000000   0.000000
    16  C   -0.005260  -0.005406   0.000000   0.000000   0.000000   0.000000
    17  C    0.000001   0.000000   0.000000   0.000000   0.000000   0.000000
    18  N    0.000000   0.000000   0.000000   0.000000   0.000000   0.000000
    19  C    0.000000   0.000000   0.000000   0.000000   0.000000   0.000000
    20  C    0.000000   0.000000   0.000000   0.000000   0.000000   0.000000
    21  C    0.000000   0.000000   0.000000   0.000000   0.000000   0.000000
    22  C    0.000000   0.000000   0.000000   0.000000   0.000000   0.000000
    23  H    0.000617  -0.000090   0.013710  -0.000006  -0.000005  -0.000014
    24  H    0.004337   0.004498   0.000004  -0.000019  -0.000004   0.000021
    25  H    0.552923  -0.018775  -0.000086   0.000000  -0.000001   0.000000
    26  H   -0.018775   0.519504  -0.000069  -0.000032   0.000012  -0.000001
    27  H   -0.000086  -0.000069   0.419612   0.003442  -0.000548  -0.000519
    28  H    0.000000  -0.000032   0.003442   0.468218  -0.023254  -0.023101
    29  H   -0.000001   0.000012  -0.000548  -0.023254   0.564360  -0.036632
    30  H    0.000000  -0.000001  -0.000519  -0.023101  -0.036632   0.562478
    31  H   -0.006769   0.001371   0.000022   0.000000   0.000000   0.000000
    32  H    0.000288  -0.000013  -0.000001   0.000000   0.000000   0.000000
    33  H    0.000732  -0.000005  -0.000001   0.000000   0.000000   0.000000
    34  H    0.000000  -0.000096  -0.000002   0.000000   0.000000   0.000000
    35  H    0.000003   0.000002   0.000000   0.000000   0.000000   0.000000
    36  H    0.002407   0.002373   0.000000   0.000000   0.000000   0.000000
    37  H    0.000000   0.000000   0.000000   0.000000   0.000000   0.000000
    38  H    0.000000   0.000000   0.000000   0.000000   0.000000   0.000000
    39  H    0.000000   0.000000   0.000000   0.000000   0.000000   0.000000
    40  H    0.000000   0.000000   0.000000   0.000000   0.000000   0.000000
              31         32         33         34         35         36
     1  C    0.001517  -0.000017  -0.000027   0.000532  -0.000001  -0.000016
     2  N    0.006035   0.002432   0.002586   0.000439   0.000000   0.000003
     3  C   -0.004938  -0.000258  -0.000438  -0.023007   0.000036   0.000158
     4  C   -0.014823   0.000331  -0.000371  -0.007204  -0.000158  -0.003971
     5  O    0.000015   0.000000   0.000000  -0.000161   0.000000   0.000000
     6  N    0.000019   0.000000   0.000000  -0.000004   0.000000   0.000000
     7  C    0.000000   0.000000   0.000000   0.000000   0.000000   0.000000
     8  C   -0.023138  -0.019383  -0.019913  -0.000093   0.000000   0.000000
     9  O    0.005950  -0.001423  -0.001208  -0.000003   0.000000   0.000000
    10  C    0.283292   0.365411   0.365781   0.000247  -0.000075  -0.000111
    11  C   -0.008983   0.000399   0.002120  -0.062229   0.003745  -0.077057
    12  C   -0.011889   0.001229   0.000404   0.354594  -0.042350   0.004876
    13  C   -0.003474   0.000133   0.000039  -0.015280   0.347569   0.000193
    14  C   -0.000274  -0.000009  -0.000006   0.002637  -0.028555   0.004316
    15  N   -0.000216   0.000000  -0.000038   0.000008   0.003847  -0.050981
    16  C   -0.003225   0.000018   0.000388   0.004211   0.000567   0.380645
    17  C   -0.000013   0.000000  -0.000001  -0.000222  -0.012837  -0.000139
    18  N    0.000000   0.000000   0.000000  -0.000048   0.025996   0.000002
    19  C    0.000000   0.000000   0.000000   0.000000   0.000165   0.000000
    20  C    0.000000   0.000000   0.000000   0.000000   0.000069   0.000000
    21  C    0.000000   0.000000   0.000000   0.000000   0.000000  -0.000001
    22  C   -0.000001   0.000000   0.000000   0.000005   0.000640  -0.000023
    23  H   -0.001095  -0.000130  -0.000132  -0.000036   0.000000   0.000000
    24  H   -0.008336   0.000380  -0.000002   0.016523   0.000051   0.000022
    25  H   -0.006769   0.000288   0.000732   0.000000   0.000003   0.002407
    26  H    0.001371  -0.000013  -0.000005  -0.000096   0.000002   0.002373
    27  H    0.000022  -0.000001  -0.000001  -0.000002   0.000000   0.000000
    28  H    0.000000   0.000000   0.000000   0.000000   0.000000   0.000000
    29  H    0.000000   0.000000   0.000000   0.000000   0.000000   0.000000
    30  H    0.000000   0.000000   0.000000   0.000000   0.000000   0.000000
    31  H    0.715142  -0.028534  -0.029778  -0.007599   0.000127   0.000170
    32  H   -0.028534   0.517670  -0.018289   0.000150   0.000006   0.000001
    33  H   -0.029778  -0.018289   0.516603   0.000066   0.000000   0.000005
    34  H   -0.007599   0.000150   0.000066   0.575407  -0.003900  -0.000190
    35  H    0.000127   0.000006   0.000000  -0.003900   0.523769   0.000023
    36  H    0.000170   0.000001   0.000005  -0.000190   0.000023   0.599163
    37  H    0.000000   0.000000   0.000000   0.000000  -0.000116   0.000000
    38  H    0.000000   0.000000   0.000000   0.000000  -0.000001   0.000000
    39  H    0.000000   0.000000   0.000000   0.000000   0.000000   0.000000
    40  H    0.000000   0.000000   0.000000   0.000001  -0.000053  -0.000102
              37         38         39         40
     1  C    0.000000   0.000000   0.000000   0.000000
     2  N    0.000000   0.000000   0.000000   0.000000
     3  C    0.000000   0.000000   0.000000   0.000000
     4  C    0.000000   0.000000   0.000000  -0.000001
     5  O    0.000000   0.000000   0.000000   0.000000
     6  N    0.000000   0.000000   0.000000   0.000000
     7  C    0.000000   0.000000   0.000000   0.000000
     8  C    0.000000   0.000000   0.000000   0.000000
     9  O    0.000000   0.000000   0.000000   0.000000
    10  C    0.000000   0.000000   0.000000   0.000000
    11  C    0.000000   0.000000   0.000000   0.000052
    12  C   -0.000001   0.000000   0.000000   0.000012
    13  C   -0.000031  -0.000002   0.000007   0.000496
    14  C   -0.000144   0.000019  -0.000188  -0.014546
    15  N    0.000002   0.000000  -0.000025   0.024874
    16  C    0.000000   0.000000   0.000000   0.000436
    17  C    0.004075   0.000437   0.002940  -0.027600
    18  N   -0.052319   0.004192   0.000030   0.004016
    19  C    0.376604  -0.035946   0.005169   0.000243
    20  C   -0.066999   0.352626  -0.044430   0.004439
    21  C    0.004427  -0.039378   0.358575  -0.045588
    22  C    0.000439   0.004040  -0.037404   0.350492
    23  H    0.000000   0.000000   0.000000   0.000000
    24  H    0.000000   0.000000   0.000000   0.000000
    25  H    0.000000   0.000000   0.000000   0.000000
    26  H    0.000000   0.000000   0.000000   0.000000
    27  H    0.000000   0.000000   0.000000   0.000000
    28  H    0.000000   0.000000   0.000000   0.000000
    29  H    0.000000   0.000000   0.000000   0.000000
    30  H    0.000000   0.000000   0.000000   0.000000
    31  H    0.000000   0.000000   0.000000   0.000000
    32  H    0.000000   0.000000   0.000000   0.000000
    33  H    0.000000   0.000000   0.000000   0.000000
    34  H    0.000000   0.000000   0.000000   0.000001
    35  H   -0.000116  -0.000001   0.000000  -0.000053
    36  H    0.000000   0.000000   0.000000  -0.000102
    37  H    0.597857  -0.002554  -0.000175   0.000022
    38  H   -0.002554   0.583453  -0.005271  -0.000105
    39  H   -0.000175  -0.005271   0.584587  -0.004588
    40  H    0.000022  -0.000105  -0.004588   0.529410
 Mulliken charges:
               1
     1  C    0.590489
     2  N   -0.630563
     3  C   -0.013512
     4  C   -0.373708
     5  O   -0.514461
     6  N   -0.615623
     7  C   -0.311342
     8  C    0.588502
     9  O   -0.504399
    10  C   -0.512468
    11  C    0.131712
    12  C   -0.153969
    13  C   -0.161591
    14  C    0.275728
    15  N   -0.516162
    16  C    0.002545
    17  C    0.261291
    18  N   -0.511606
    19  C    0.043954
    20  C   -0.140263
    21  C   -0.107500
    22  C   -0.141082
    23  H    0.317108
    24  H    0.184390
    25  H    0.182921
    26  H    0.194354
    27  H    0.319495
    28  H    0.215561
    29  H    0.158688
    30  H    0.159807
    31  H    0.139429
    32  H    0.179609
    33  H    0.181484
    34  H    0.165253
    35  H    0.181429
    36  H    0.138234
    37  H    0.138913
    38  H    0.138491
    39  H    0.140771
    40  H    0.178091
 Sum of Mulliken charges =   0.00000
 Mulliken charges with hydrogens summed into heavy atoms:
               1
     1  C    0.590489
     2  N   -0.313454
     3  C    0.170878
     4  C    0.003567
     5  O   -0.514461
     6  N   -0.296128
     7  C    0.222714
     8  C    0.588502
     9  O   -0.504399
    10  C   -0.011947
    11  C    0.131712
    12  C    0.011284
    13  C    0.019838
    14  C    0.275728
    15  N   -0.516162
    16  C    0.140779
    17  C    0.261291
    18  N   -0.511606
    19  C    0.182867
    20  C   -0.001772
    21  C    0.033271
    22  C    0.037008
 Electronic spatial extent (au):  <R**2>=           9518.2992
 Charge=              0.0000 electrons
 Dipole moment (field-independent basis, Debye):
    X=             -0.4098    Y=             -1.3796    Z=              0.3159  Tot=              1.4734
 Quadrupole moment (field-independent basis, Debye-Ang):
   XX=            -95.7830   YY=           -149.8954   ZZ=           -122.8248
   XY=             12.7255   XZ=             -0.6367   YZ=              1.6663
 Traceless Quadrupole moment (field-independent basis, Debye-Ang):
   XX=             27.0515   YY=            -27.0610   ZZ=              0.0096
   XY=             12.7255   XZ=             -0.6367   YZ=              1.6663
 Octapole moment (field-independent basis, Debye-Ang**2):
  XXX=            -17.3185  YYY=            -41.4406  ZZZ=             -1.1571  XYY=             44.7431
  XXY=            -86.2023  XXZ=             -4.9430  XZZ=            -10.8339  YZZ=              1.1211
  YYZ=              5.9251  XYZ=             -3.7156
 Hexadecapole moment (field-independent basis, Debye-Ang**3):
 XXXX=          -8267.2616 YYYY=          -1796.5236 ZZZZ=           -715.3392 XXXY=            279.7944
 XXXZ=             16.4854 YYYX=            240.9223 YYYZ=             18.8316 ZZZX=             -9.8374
 ZZZY=              0.5723 XXYY=          -2248.3169 XXZZ=          -1766.0529 YYZZ=           -378.3062
 XXYZ=             44.7605 YYXZ=            -21.3461 ZZXY=             -4.3406
 N-N= 1.717402588744D+03 E-N=-5.737396724132D+03  KE= 9.816329973493D+02
 Calling FoFJK, ICntrl=      2127 FMM=F ISym2X=0 I1Cent= 0 IOpClX= 0 NMat=1 NMatS=1 NMatT=0.
 ***** Axes restored to original set *****
 -------------------------------------------------------------------
 Center     Atomic                   Forces (Hartrees/Bohr)
 Number     Number              X              Y              Z
 -------------------------------------------------------------------
      1        6           0.010639547    0.014169822   -0.000087824
      2        7           0.002694564   -0.019557504   -0.000110071
      3        6           0.004923116    0.033985754    0.006877084
      4        6          -0.016375959   -0.001236238   -0.010440142
      5        8          -0.006619665   -0.023252887   -0.024680160
      6        7          -0.001179206   -0.007688323    0.005594141
      7        6           0.001787199    0.012567203   -0.005951855
      8        6           0.003926367    0.009677161    0.007434981
      9        8           0.004851152    0.021642008    0.025673624
     10        6           0.002585967   -0.009816947   -0.012496686
     11        6          -0.004613434   -0.002806232   -0.018857758
     12        6           0.007261710   -0.029473700   -0.013146171
     13        6           0.021648936    0.028640619   -0.002618910
     14        6          -0.006305905    0.106278054    0.000618132
     15        7           0.000233024    0.030140257   -0.000467936
     16        6          -0.006782502   -0.017878201    0.000610294
     17        6           0.004028704   -0.108279409   -0.004626927
     18        7           0.000808251   -0.028074251    0.000221747
     19        6           0.011247609    0.010457739    0.001118844
     20        6          -0.004947019   -0.014038069   -0.000176814
     21        6          -0.012420505   -0.004275433    0.002439747
     22        6          -0.021901231   -0.026712978    0.005490263
     23        1           0.000063569   -0.009620471    0.018557295
     24        1          -0.009170296    0.034717264   -0.007850328
     25        1           0.002264467   -0.001235883   -0.014161668
     26        1           0.003173555   -0.003636932    0.011082016
     27        1           0.000463360    0.005681085   -0.014093294
     28        1           0.002097934    0.007165399    0.014894996
     29        1           0.008675190   -0.006204846   -0.002803329
     30        1          -0.010532266   -0.002791766   -0.001792983
     31        1           0.006609797    0.004897543    0.045243392
     32        1          -0.010379270    0.006065394   -0.003904696
     33        1           0.011064067    0.001164319   -0.005925362
     34        1          -0.007337645   -0.025951430    0.000007789
     35        1          -0.013089219    0.003901589    0.000539287
     36        1           0.004155974   -0.007439561    0.000013383
     37        1          -0.003980564    0.008779213    0.000787531
     38        1           0.000375546    0.009492245   -0.000030015
     39        1           0.007052548    0.004881332   -0.000667866
     40        1           0.013002534   -0.004332937   -0.002313752
 -------------------------------------------------------------------
 Cartesian Forces:  Max     0.108279409 RMS     0.018691898

[...]
     6  N    0.000001   0.000000   0.000000   0.000001   0.000000   0.000000
     7  C    0.000000   0.000000   0.000000   0.000000   0.000000   0.000000
     8  C    0.000000   0.000000   0.000001   0.000065   0.000000   0.000000
     9  O    0.000000   0.000000   0.000000   0.000000   0.000000   0.000000
    10  C    0.000005   0.000005  -0.000018  -0.001307   0.000000   0.000000
    11  C   -0.020126  -0.031140  -0.018581   0.474142   0.000511   0.000007
    12  C    0.444348  -0.023018  -0.042047  -0.039517   0.005052   0.000872
    13  C    5.203572   0.405415  -0.089300  -0.054784  -0.064534  -0.007529
    14  C    0.405415   4.825814   0.466894  -0.057118   0.324295  -0.080033
    15  N   -0.089300   0.466894   6.841923   0.444198  -0.079168   0.003478
    16  C   -0.054784  -0.057118   0.444198   4.913946   0.006453  -0.000112
    17  C   -0.064534   0.324295  -0.079168   0.006453   4.808062   0.471823
    18  N   -0.007529  -0.080033   0.003478  -0.000112   0.471823   6.822575
    19  C   -0.000256   0.006668  -0.000107   0.000004  -0.052704   0.468732
    20  C    0.000102   0.000347  -0.000001   0.000000  -0.038595  -0.032002
    21  C   -0.000230   0.005225   0.000898  -0.000005  -0.014794  -0.035479
    22  C    0.019808  -0.067261  -0.009003  -0.000207   0.406803  -0.094418
    23  H    0.000000   0.000000   0.000000   0.000001   0.000000   0.000000
    24  H   -0.000147  -0.000020  -0.000122   0.001693   0.000000   0.000000
    25  H   -0.000126  -0.000007   0.000188  -0.005819   0.000000   0.000000
    26  H   -0.000088   0.000034  -0.000147   0.001906   0.000000   0.000000
    27  H    0.000000   0.000000   0.000000   0.000000   0.000000   0.000000
    28  H    0.000000   0.000000   0.000000   0.000000   0.000000   0.000000
    29  H    0.000000   0.000000   0.000000   0.000000   0.000000   0.000000
    30  H    0.000000   0.000000   0.000000   0.000000   0.000000   0.000000
    31  H    0.000000   0.000000   0.000000  -0.000003   0.000000   0.000000
    32  H    0.000000   0.000000   0.000000   0.000009   0.000000   0.000000
    33  H   -0.000034  -0.000025   0.000005   0.004767   0.000000   0.000000
    34  H   -0.038065   0.002823  -0.000163   0.006063  -0.000109  -0.000011
    35  H    0.348151  -0.031311   0.004965   0.000409  -0.010311   0.021148
    36  H    0.000188   0.004245  -0.055748   0.372924  -0.000134   0.000002
    37  H   -0.000014  -0.000137   0.000002   0.000000   0.004298  -0.055677
    38  H   -0.000001   0.000014   0.000000   0.000000   0.000462   0.004463
    39  H    0.000003  -0.000127  -0.000009   0.000000   0.003282  -0.000013
    40  H    0.000262  -0.010902   0.021467   0.000266  -0.030272   0.004934
              19         20         21         22         23         24
     1  C    0.000000   0.000000   0.000000   0.000000  -0.000657  -0.026278
     2  N    0.000000   0.000000   0.000000   0.000000   0.278173  -0.036357
     3  C    0.000000   0.000000   0.000000   0.000000  -0.035714   0.364373
     4  C    0.000000   0.000000   0.000000  -0.000001  -0.001877  -0.051761
     5  O    0.000000   0.000000   0.000000   0.000000   0.000057  -0.000046
     6  N    0.000000   0.000000   0.000000   0.000000   0.002175  -0.001166
     7  C    0.000000   0.000000   0.000000   0.000000  -0.000139  -0.000180
     8  C    0.000000   0.000000   0.000000   0.000000  -0.009898  -0.010368
     9  O    0.000000   0.000000   0.000000   0.000000   0.009813   0.000038
    10  C    0.000000   0.000000   0.000000   0.000000   0.008975   0.007612
    11  C    0.000000   0.000000   0.000001   0.000067   0.000057   0.002798
    12  C   -0.000009   0.000001   0.000003  -0.000202   0.000000   0.002673
    13  C   -0.000256   0.000102  -0.000230   0.019808   0.000000  -0.000147
    14  C    0.006668   0.000347   0.005225  -0.067261   0.000000  -0.000020
    15  N   -0.000107  -0.000001   0.000898  -0.009003   0.000000  -0.000122
    16  C    0.000004   0.000000  -0.000005  -0.000207   0.000001   0.001693
    17  C   -0.052704  -0.038595  -0.014794   0.406803   0.000000   0.000000
    18  N    0.468732  -0.032002  -0.035479  -0.094418   0.000000   0.000000
    19  C    4.771628   0.492419  -0.027842  -0.048429   0.000000   0.000000
    20  C    0.492419   4.967807   0.530992  -0.023613   0.000000   0.000000
    21  C   -0.027842   0.530992   4.873167   0.490998   0.000000   0.000000
    22  C   -0.048429  -0.023613   0.490998   5.164456   0.000000   0.000000
    23  H    0.000000   0.000000   0.000000   0.000000   0.413457   0.004821
    24  H    0.000000   0.000000   0.000000   0.000000   0.004821   0.542092
    25  H    0.000000   0.000000   0.000000   0.000000   0.001055   0.002119
    26  H    0.000000   0.000000   0.000000   0.000000   0.000877   0.005165
    27  H    0.000000   0.000000   0.000000   0.000000  -0.000473  -0.000234
    28  H    0.000000   0.000000   0.000000   0.000000  -0.000006  -0.000021
    29  H    0.000000   0.000000   0.000000   0.000000  -0.000025  -0.000007
    30  H    0.000000   0.000000   0.000000   0.000000   0.000009   0.000035
    31  H    0.000000   0.000000   0.000000   0.000000  -0.000215   0.002920
    32  H    0.000000   0.000000   0.000000   0.000000  -0.000160   0.000061
    33  H    0.000000   0.000000   0.000000   0.000000  -0.000358  -0.000732
    34  H    0.000000   0.000000   0.000000   0.000002   0.000002   0.000517
    35  H    0.000113   0.000047   0.000009   0.000278   0.000000   0.000001
    36  H    0.000000   0.000000  -0.000001  -0.000014   0.000002   0.000061
    37  H    0.377952  -0.066825   0.004013   0.000424   0.000000   0.000000
    38  H   -0.036265   0.353159  -0.040854   0.004403   0.000000   0.000000
    39  H    0.004924  -0.044830   0.363303  -0.040311   0.000000   0.000000
    40  H    0.000189   0.004695  -0.046413   0.348316   0.000000   0.000000
              25         26         27         28         29         30
     1  C    0.003875  -0.002907  -0.027622   0.000130   0.000534   0.001586
     2  N   -0.001288   0.002011   0.025716  -0.000064  -0.000001   0.000001
     3  C   -0.043950  -0.044190  -0.004594   0.001098   0.000009  -0.000306
     4  C    0.358170   0.353125   0.000753  -0.000017   0.000008  -0.000003
     5  O    0.000529   0.008521   0.003090   0.019992   0.000414   0.000497
     6  N   -0.000074   0.000529   0.299121  -0.040406  -0.040763  -0.040926
     7  C    0.000002  -0.000016  -0.028940   0.376479   0.382487   0.381453
     8  C    0.001800  -0.000206   0.000384   0.000001  -0.000001   0.000001
     9  O   -0.000160   0.000001  -0.000147   0.000000   0.000000   0.000000
    10  C   -0.000210  -0.000001  -0.000023   0.000000   0.000000   0.000000
    11  C   -0.035800  -0.017330  -0.000019   0.000002   0.000000   0.000000
    12  C    0.005274  -0.004356  -0.000002   0.000000   0.000000   0.000000
    13  C   -0.000126  -0.000088   0.000000   0.000000   0.000000   0.000000
    14  C   -0.000007   0.000034   0.000000   0.000000   0.000000   0.000000
    15  N    0.000188  -0.000147   0.000000   0.000000   0.000000   0.000000
    16  C   -0.005819   0.001906   0.000000   0.000000   0.000000   0.000000
    17  C    0.000000   0.000000   0.000000   0.000000   0.000000   0.000000
    18  N    0.000000   0.000000   0.000000   0.000000   0.000000   0.000000
    19  C    0.000000   0.000000   0.000000   0.000000   0.000000   0.000000
    20  C    0.000000   0.000000   0.000000   0.000000   0.000000   0.000000
    21  C    0.000000   0.000000   0.000000   0.000000   0.000000   0.000000
    22  C    0.000000   0.000000   0.000000   0.000000   0.000000   0.000000
    23  H    0.001055   0.000877  -0.000473  -0.000006  -0.000025   0.000009
    24  H    0.002119   0.005165  -0.000234  -0.000021  -0.000007   0.000035
    25  H    0.578922  -0.027694  -0.000023   0.000000   0.000000   0.000000
    26  H   -0.027694   0.538606  -0.000061  -0.000009   0.000001   0.000000
    27  H   -0.000023  -0.000061   0.387002   0.003418  -0.000102  -0.001250
    28  H    0.000000  -0.000009   0.003418   0.483005  -0.024419  -0.024499
    29  H    0.000000   0.000001  -0.000102  -0.024419   0.557875  -0.038936
    30  H    0.000000   0.000000  -0.001250  -0.024499  -0.038936   0.558892
    31  H    0.000033  -0.000003   0.000081   0.000000   0.000000   0.000000
    32  H    0.000012   0.000000  -0.000003   0.000000   0.000000   0.000000
    33  H    0.000279   0.000032   0.000001   0.000000   0.000000   0.000000
    34  H   -0.000012   0.001964  -0.000009  -0.000011   0.000000   0.000001
    35  H    0.000003  -0.000003   0.000000   0.000000   0.000000   0.000000
    36  H    0.007925  -0.000002   0.000000   0.000000   0.000000   0.000000
    37  H    0.000000   0.000000   0.000000   0.000000   0.000000   0.000000
    38  H    0.000000   0.000000   0.000000   0.000000   0.000000   0.000000
    39  H    0.000000   0.000000   0.000000   0.000000   0.000000   0.000000
    40  H    0.000000   0.000000   0.000000   0.000000   0.000000   0.000000
              31         32         33         34         35         36
     1  C   -0.000158  -0.000001   0.000212   0.000752   0.000001  -0.000005
     2  N    0.003942   0.004799   0.000978   0.000003   0.000000  -0.000042
     3  C   -0.003397   0.000262  -0.001147  -0.000802  -0.000001   0.000115
     4  C    0.000275  -0.000026   0.000103  -0.007727  -0.000108  -0.005598
     5  O    0.000000   0.000000   0.000000   0.021494  -0.000001   0.000000
     6  N    0.000057   0.000000  -0.000001   0.000202   0.000000   0.000000
     7  C    0.000000   0.000000   0.000000   0.000000   0.000000   0.000000
     8  C   -0.019850  -0.022138  -0.016682   0.000000   0.000000   0.000020
     9  O    0.001472   0.004772   0.001219   0.000000   0.000000   0.000000
    10  C    0.348111   0.357849   0.345540   0.000001   0.000000  -0.000163
    11  C   -0.000026   0.000005   0.001511  -0.039006   0.003787  -0.071160
    12  C   -0.000001   0.000000   0.000048   0.347487  -0.043088   0.005286
    13  C    0.000000   0.000000  -0.000034  -0.038065   0.348151   0.000188
    14  C    0.000000   0.000000  -0.000025   0.002823  -0.031311   0.004245
    15  N    0.000000   0.000000   0.000005  -0.000163   0.004965  -0.055748
    16  C   -0.000003   0.000009   0.004767   0.006063   0.000409   0.372924
    17  C    0.000000   0.000000   0.000000  -0.000109  -0.010311  -0.000134
    18  N    0.000000   0.000000   0.000000  -0.000011   0.021148   0.000002
    19  C    0.000000   0.000000   0.000000   0.000000   0.000113   0.000000
    20  C    0.000000   0.000000   0.000000   0.000000   0.000047   0.000000
    21  C    0.000000   0.000000   0.000000   0.000000   0.000009  -0.000001
    22  C    0.000000   0.000000   0.000000   0.000002   0.000278  -0.000014
    23  H   -0.000215  -0.000160  -0.000358   0.000002   0.000000   0.000002
    24  H    0.002920   0.000061  -0.000732   0.000517   0.000001   0.000061
    25  H    0.000033   0.000012   0.000279  -0.000012   0.000003   0.007925
    26  H   -0.000003   0.000000   0.000032   0.001964  -0.000003  -0.000002
    27  H    0.000081  -0.000003   0.000001  -0.000009   0.000000   0.000000
    28  H    0.000000   0.000000   0.000000  -0.000011   0.000000   0.000000
    29  H    0.000000   0.000000   0.000000   0.000000   0.000000   0.000000
    30  H    0.000000   0.000000   0.000000   0.000001   0.000000   0.000000
    31  H    0.543089  -0.020893  -0.027926  -0.000001   0.000000  -0.000002
    32  H   -0.020893   0.502557  -0.019740   0.000000   0.000000   0.000001
    33  H   -0.027926  -0.019740   0.526121  -0.000001   0.000000   0.001355
    34  H   -0.000001   0.000000  -0.000001   0.523609  -0.004074  -0.000156
    35  H    0.000000   0.000000   0.000000  -0.004074   0.542172   0.000028
    36  H   -0.000002   0.000001   0.001355  -0.000156   0.000028   0.609581
    37  H    0.000000   0.000000   0.000000   0.000000  -0.000101   0.000000
    38  H    0.000000   0.000000   0.000000   0.000000  -0.000001   0.000000
    39  H    0.000000   0.000000   0.000000   0.000000   0.000000   0.000000
    40  H    0.000000   0.000000   0.000000   0.000000  -0.000048  -0.000101
              37         38         39         40
     1  C    0.000000   0.000000   0.000000   0.000000
     2  N    0.000000   0.000000   0.000000   0.000000
     3  C    0.000000   0.000000   0.000000   0.000000
     4  C    0.000000   0.000000   0.000000  -0.000001
     5  O    0.000000   0.000000   0.000000   0.000000
     6  N    0.000000   0.000000   0.000000   0.000000
     7  C    0.000000   0.000000   0.000000   0.000000
     8  C    0.000000   0.000000   0.000000   0.000000
     9  O    0.000000   0.000000   0.000000   0.000000
    10  C    0.000000   0.000000   0.000000   0.000000
    11  C    0.000000   0.000000   0.000000   0.000038
    12  C   -0.000001   0.000000   0.000000   0.000016
    13  C   -0.000014  -0.000001   0.000003   0.000262
    14  C   -0.000137   0.000014  -0.000127  -0.010902
    15  N    0.000002   0.000000  -0.000009   0.021467
    16  C    0.000000   0.000000   0.000000   0.000266
    17  C    0.004298   0.000462   0.003282  -0.030272
    18  N   -0.055677   0.004463  -0.000013   0.004934
    19  C    0.377952  -0.036265   0.004924   0.000189
    20  C   -0.066825   0.353159  -0.044830   0.004695
    21  C    0.004013  -0.040854   0.363303  -0.046413
    22  C    0.000424   0.004403  -0.040311   0.348316
    23  H    0.000000   0.000000   0.000000   0.000000
    24  H    0.000000   0.000000   0.000000   0.000000
    25  H    0.000000   0.000000   0.000000   0.000000
    26  H    0.000000   0.000000   0.000000   0.000000
    27  H    0.000000   0.000000   0.000000   0.000000
    28  H    0.000000   0.000000   0.000000   0.000000
    29  H    0.000000   0.000000   0.000000   0.000000
    30  H    0.000000   0.000000   0.000000   0.000000
    31  H    0.000000   0.000000   0.000000   0.000000
    32  H    0.000000   0.000000   0.000000   0.000000
    33  H    0.000000   0.000000   0.000000   0.000000
    34  H    0.000000   0.000000   0.000000   0.000000
    35  H   -0.000101  -0.000001   0.000000  -0.000048
    36  H    0.000000   0.000000   0.000000  -0.000101
    37  H    0.599548  -0.002120  -0.000169   0.000026
    38  H   -0.002120   0.584666  -0.005282  -0.000105
    39  H   -0.000169  -0.005282   0.581602  -0.004916
    40  H    0.000026  -0.000105  -0.004916   0.545853
 Mulliken charges:
               1
     1  C    0.597219
     2  N   -0.618417
     3  C   -0.045073
     4  C   -0.363602
     5  O   -0.523194
     6  N   -0.586651
     7  C   -0.313232
     8  C    0.568186
     9  O   -0.482137
    10  C   -0.553406
    11  C    0.125532
    12  C   -0.158376
    13  C   -0.154332
    14  C    0.259058
    15  N   -0.495662
    16  C   -0.021920
    17  C    0.259575
    18  N   -0.492758
    19  C    0.042984
    20  C   -0.143702
    21  C   -0.102991
    22  C   -0.152095
    23  H    0.330050
    24  H    0.190458
    25  H    0.154977
    26  H    0.184242
    27  H    0.343935
    28  H    0.205328
    29  H    0.162927
    30  H    0.163446
    31  H    0.172495
    32  H    0.192633
    33  H    0.184475
    34  H    0.185226
    35  H    0.167934
    36  H    0.131392
    37  H    0.138780
    38  H    0.137459
    39  H    0.142544
    40  H    0.166693
 Sum of Mulliken charges =   0.00000
 Mulliken charges with hydrogens summed into heavy atoms:
               1
     1  C    0.597219
     2  N   -0.288367
     3  C    0.145385
     4  C   -0.024382
     5  O   -0.523194
     6  N   -0.242716
     7  C    0.218469
     8  C    0.568186
     9  O   -0.482137
    10  C   -0.003804
    11  C    0.125532
    12  C    0.026850
    13  C    0.013602
    14  C    0.259058
    15  N   -0.495662
    16  C    0.109473
    17  C    0.259575
    18  N   -0.492758
    19  C    0.181764
    20  C   -0.006242
    21  C    0.039552
    22  C    0.014598
 Electronic spatial extent (au):  <R**2>=          10096.0419
 Charge=              0.0000 electrons
 Dipole moment (field-independent basis, Debye):
    X=             -0.6757    Y=             -0.9628    Z=             -1.7993  Tot=              2.1497
 Quadrupole moment (field-independent basis, Debye-Ang):
   XX=           -106.7124   YY=           -138.6453   ZZ=           -125.0400
   XY=             17.9310   XZ=              1.4057   YZ=              3.0563
 Traceless Quadrupole moment (field-independent basis, Debye-Ang):
   XX=             16.7535   YY=            -15.1794   ZZ=             -1.5741
   XY=             17.9310   XZ=              1.4057   YZ=              3.0563
 Octapole moment (field-independent basis, Debye-Ang**2):
  XXX=             64.1811  YYY=            -32.0790  ZZZ=             -3.3111  XYY=             44.9212
  XXY=            -89.0192  XXZ=            -43.2087  XZZ=            -39.4486  YZZ=              3.9420
  YYZ=            -14.9775  XYZ=             -9.2994
 Hexadecapole moment (field-independent basis, Debye-Ang**3):
 XXXX=          -9338.6786 YYYY=          -2185.6358 ZZZZ=           -546.6293 XXXY=            626.0288
 XXXZ=           -114.8552 YYYX=            222.1823 YYYZ=             17.4004 ZZZX=             19.9797
 ZZZY=             -1.5778 XXYY=          -2288.6103 XXZZ=          -1868.5185 YYZZ=           -425.5926
 XXYZ=             88.8648 YYXZ=             36.2463 ZZXY=            -22.7196
 N-N= 1.671521416555D+03 E-N=-5.645374586382D+03  KE= 9.808253042368D+02
 1\1\GINC-MERCURY\FOpt\RB3LYP\6-31G(d)\C16H18N4O2\ROTATIONS\14-Mar-2021
 \0\\#B3LYP/6-31G(d) em=GD3BJ Opt=ModRedundant\\scan rotamers\\0,1\C,0.
 6307503439,3.036170732,-1.309390694\N,-0.0885798113,3.5568837163,0.996
 9243963\C,0.0427533887,2.4914237982,0.0094359895\C,-1.2727408436,1.698
 5936594,-0.2395924428\O,0.3866227997,2.5010961483,-2.3870527605\N,1.45
 3045337,4.1038380274,-1.1616523932\C,2.1517667491,4.7176927407,-2.2753
 596527\C,-0.031876708,3.3845370398,2.3728948663\O,-0.4814577125,4.2379
 753971,3.1202290735\C,0.644475896,2.1227024206,2.8787789298\C,-1.06203
 67184,0.2061954115,-0.3004495071\C,-0.359505782,-0.4146895884,-1.34153
 86848\C,-0.1733334639,-1.7908942973,-1.3109657979\C,-0.6907618805,-2.5
 262264368,-0.2347729268\N,-1.3675087171,-1.9423662918,0.7688841821\C,-
 1.5397177793,-0.6210514073,0.7228565165\C,-0.5110306146,-3.9994398279,
 -0.1588756123\N,0.1805085292,-4.5797900186,-1.1560669294\C,0.354968699
 5,-5.9023244435,-1.1117556562\C,-0.1387586587,-6.7144485325,-0.0898840
 002\C,-0.8547728784,-6.1077460365,0.9420415548\C,-1.0459720763,-4.7307
 827905,0.9110937269\H,-0.6985747986,4.3287659609,0.7431481476\H,0.7952
 296008,1.7956041988,0.3922464595\H,-1.9605528185,1.9283325967,0.580686
 8236\H,-1.7291178683,2.0546695594,-1.1681570579\H,1.5632775582,4.47320
 68574,-0.2268133362\H,1.8615045429,4.1824544383,-3.180252724\H,1.87735
 31612,5.7736456491,-2.3764072332\H,3.2376636597,4.6446472185,-2.146854
 9245\H,1.662296976,2.0247168542,2.4845112225\H,0.6844263341,2.17812392
 5,3.9666976399\H,0.0889738063,1.2251124105,2.584303505\H,0.0298706496,
 0.1899638033,-2.1548102343\H,0.3605459068,-2.3137678594,-2.095067553\H
 ,-2.1007260149,-0.1854731453,1.5507203383\H,0.9189034311,-6.3362297254
 ,-1.9358854992\H,0.0343451536,-7.785949129,-0.1067226679\H,-1.25865454
 55,-6.6996248263,1.7588402184\H,-1.5937028332,-4.2057482068,1.68393469
 78\\Version=ES64L-G09RevD.01\State=1-A\HF=-990.1158589\RMSD=8.287e-09\
 RMSF=5.335e-06\Dipole=0.8164006,0.178343,-0.1303134\Quadrupole=0.51274
 19,11.6958251,-12.208567,6.5753865,-0.0051232,-11.8165165\PG=C01 [X(C1
 6H18N4O2)]\\@


 There ain't no surer way to find out whether you
 like people or hate them than to travel with them.
                                     -- Mark Twain
 Job cpu time:       0 days  5 hours  7 minutes 31.4 seconds.
 File lengths (MBytes):  RWF=     85 Int=      0 D2E=      0 Chk=     11 Scr=      1
 Normal termination of Gaussian 09 at Sun Mar 14 15:57:44 2021.
